<?xml version="1.0" encoding="UTF-8"?>

<!-- generated on 2024-09-17 13:03:12 by Eclipse SUMO GUI Version 1.20.0
<configuration xmlns:xsi="http://www.w3.org/2001/XMLSchema-instance" xsi:noNamespaceSchemaLocation="http://sumo.dlr.de/xsd/sumoConfiguration.xsd">

    <input>
        <net-file value="/Users/duyvuquoc/PycharmProjects/RESCO/resco_benchmark/environments/ingolstadt7/ingolstadt7.net.xml"/>
        <route-files value="/Users/duyvuquoc/PycharmProjects/RESCO/resco_benchmark/environments/ingolstadt7/ingolstadt7.rou.xml"/>
    </input>

    <output>
        <tripinfo-output value="/Users/duyvuquoc/PycharmProjects/RESCO/results/IDQN-tr0-ingolstadt7-7-drq_norm-wait_norm/tripinfo_1.xml"/>
        <tripinfo-output.write-unfinished value="true"/>
    </output>

    <time>
        <begin value="57600"/>
        <end value="61200"/>
    </time>

    <processing>
        <time-to-teleport value="-1"/>
    </processing>

    <report>
        <no-warnings value="True"/>
        <no-step-log value="True"/>
    </report>

    <traci_server>
        <remote-port value="57297"/>
    </traci_server>

    <random_number>
        <random value="true"/>
    </random_number>

    <gui_only>
        <start value="true"/>
    </gui_only>

</configuration>
-->

<tripinfos xmlns:xsi="http://www.w3.org/2001/XMLSchema-instance" xsi:noNamespaceSchemaLocation="http://sumo.dlr.de/xsd/tripinfo_file.xsd">
    <tripinfo id="carIn89578:1" depart="57614.00" departLane="124812856#0_1" departPos="5.10" departSpeed="0.00" departDelay="3.60" arrival="57635.00" arrivalLane="201956810_1" arrivalPos="71.65" arrivalSpeed="13.93" duration="21.00" routeLength="134.91" waitingTime="2.00" waitingCount="1" stopTime="0.00" timeLoss="10.85" rerouteNo="1" devices="tripinfo_carIn89578:1 routing_carIn89578:1" vType="default_016" speedFactor="1.09" vaporized=""/>
    <tripinfo id="h20232c1:2" depart="57634.00" departLane="-173169611#0_1" departPos="5.10" departSpeed="0.00" departDelay="0.50" arrival="57650.00" arrivalLane="201956820_1" arrivalPos="48.33" arrivalSpeed="13.63" duration="16.00" routeLength="122.35" waitingTime="0.00" waitingCount="0" stopTime="0.00" timeLoss="5.34" rerouteNo="0" devices="tripinfo_h20232c1:2 routing_h20232c1:2" vType="default_016" speedFactor="1.00" vaporized=""/>
    <tripinfo id="carIn105842:1" depart="57601.00" departLane="653473569#5_1" departPos="5.10" departSpeed="0.00" departDelay="0.80" arrival="57651.00" arrivalLane="201956811#0_1" arrivalPos="40.40" arrivalSpeed="14.33" duration="50.00" routeLength="313.24" waitingTime="12.00" waitingCount="2" stopTime="0.00" timeLoss="28.32" rerouteNo="1" devices="tripinfo_carIn105842:1 routing_carIn105842:1" vType="default_016" speedFactor="1.09" vaporized=""/>
    <tripinfo id="carIn107084:1" depart="57601.00" departLane="124812856#0_1" departPos="5.10" departSpeed="0.00" departDelay="0.70" arrival="57651.00" arrivalLane="-653473569#5_1" arrivalPos="73.05" arrivalSpeed="9.55" duration="50.00" routeLength="450.40" waitingTime="0.00" waitingCount="0" stopTime="0.00" timeLoss="6.21" rerouteNo="1" devices="tripinfo_carIn107084:1 routing_carIn107084:1" vType="default_016" speedFactor="0.76" vaporized=""/>
    <tripinfo id="carIn106322:1" depart="57614.00" departLane="653473569#5_1" departPos="5.10" departSpeed="0.00" departDelay="2.20" arrival="57653.00" arrivalLane="201956811#0_1" arrivalPos="40.40" arrivalSpeed="12.80" duration="39.00" routeLength="313.24" waitingTime="4.00" waitingCount="1" stopTime="0.00" timeLoss="14.98" rerouteNo="1" devices="tripinfo_carIn106322:1 routing_carIn106322:1" vType="default_016" speedFactor="0.98" vaporized=""/>
    <tripinfo id="carIn28951:1" depart="57606.00" departLane="10425609#0_1" departPos="5.10" departSpeed="0.00" departDelay="0.20" arrival="57654.00" arrivalLane="-653473569#5_1" arrivalPos="73.05" arrivalSpeed="13.82" duration="48.00" routeLength="312.95" waitingTime="13.00" waitingCount="1" stopTime="0.00" timeLoss="25.30" rerouteNo="1" devices="tripinfo_carIn28951:1 routing_carIn28951:1" vType="default_016" speedFactor="1.06" vaporized=""/>
    <tripinfo id="h15454c2:3" depart="57612.00" departLane="24608844_1" departPos="5.10" departSpeed="0.00" departDelay="0.50" arrival="57654.00" arrivalLane="32978638#0_1" arrivalPos="49.29" arrivalSpeed="12.13" duration="42.00" routeLength="354.79" waitingTime="0.00" waitingCount="0" stopTime="0.00" timeLoss="5.06" rerouteNo="1" devices="tripinfo_h15454c2:3 routing_h15454c2:3" vType="default_016" speedFactor="0.93" vaporized=""/>
    <tripinfo id="carIn25202:1" depart="57629.00" departLane="315358253#1_1" departPos="5.10" departSpeed="0.00" departDelay="1.50" arrival="57664.00" arrivalLane="32978638#0_1" arrivalPos="49.29" arrivalSpeed="14.07" duration="35.00" routeLength="405.15" waitingTime="0.00" waitingCount="0" stopTime="0.00" timeLoss="6.63" rerouteNo="1" devices="tripinfo_carIn25202:1 routing_carIn25202:1" vType="default_016" speedFactor="1.09" vaporized=""/>
    <tripinfo id="h20540c1:1" depart="57634.00" departLane="10425609#0_1" departPos="5.10" departSpeed="0.00" departDelay="0.50" arrival="57664.00" arrivalLane="-653473569#5_1" arrivalPos="73.05" arrivalSpeed="13.16" duration="30.00" routeLength="312.95" waitingTime="0.00" waitingCount="0" stopTime="0.00" timeLoss="5.39" rerouteNo="1" devices="tripinfo_h20540c1:1 routing_h20540c1:1" vType="default_016" speedFactor="0.99" vaporized=""/>
    <tripinfo id="carIn5482:1" depart="57617.00" departLane="653473569#5_1" departPos="5.10" departSpeed="0.00" departDelay="3.60" arrival="57671.00" arrivalLane="201956811#0_1" arrivalPos="40.40" arrivalSpeed="14.83" duration="54.00" routeLength="313.24" waitingTime="13.00" waitingCount="2" stopTime="0.00" timeLoss="32.12" rerouteNo="1" devices="tripinfo_carIn5482:1 routing_carIn5482:1" vType="default_016" speedFactor="1.10" vaporized=""/>
    <tripinfo id="carIn36103:1" depart="57620.00" departLane="653473569#5_1" departPos="5.10" departSpeed="0.00" departDelay="4.00" arrival="57675.00" arrivalLane="201956811#0_1" arrivalPos="40.40" arrivalSpeed="13.06" duration="55.00" routeLength="313.24" waitingTime="15.00" waitingCount="2" stopTime="0.00" timeLoss="31.77" rerouteNo="1" devices="tripinfo_carIn36103:1 routing_carIn36103:1" vType="default_016" speedFactor="1.02" vaporized=""/>
    <tripinfo id="carIn113711:1" depart="57601.00" departLane="-24693977#1_1" departPos="5.10" departSpeed="0.00" departDelay="0.70" arrival="57676.00" arrivalLane="-266565295#5_1" arrivalPos="172.76" arrivalSpeed="13.62" duration="75.00" routeLength="840.03" waitingTime="3.00" waitingCount="1" stopTime="0.00" timeLoss="16.58" rerouteNo="1" devices="tripinfo_carIn113711:1 routing_carIn113711:1" vType="default_016" speedFactor="1.06" vaporized=""/>
    <tripinfo id="carIn79400:1" depart="57604.00" departLane="-24693977#1_1" departPos="5.10" departSpeed="0.00" departDelay="0.10" arrival="57676.00" arrivalLane="-266565295#5_2" arrivalPos="172.76" arrivalSpeed="13.40" duration="72.00" routeLength="840.03" waitingTime="0.00" waitingCount="0" stopTime="0.00" timeLoss="12.24" rerouteNo="1" devices="tripinfo_carIn79400:1 routing_carIn79400:1" vType="default_016" speedFactor="1.04" vaporized=""/>
    <tripinfo id="carIn55461:1" depart="57653.00" departLane="10425609#0_1" departPos="5.10" departSpeed="0.00" departDelay="1.30" arrival="57679.00" arrivalLane="201956810_1" arrivalPos="71.65" arrivalSpeed="12.94" duration="26.00" routeLength="255.78" waitingTime="0.00" waitingCount="0" stopTime="0.00" timeLoss="6.10" rerouteNo="1" devices="tripinfo_carIn55461:1 routing_carIn55461:1" vType="default_016" speedFactor="0.99" vaporized=""/>
    <tripinfo id="carIn124416:1" depart="57663.00" departLane="-173169611#0_1" departPos="5.10" departSpeed="0.00" departDelay="0.50" arrival="57680.00" arrivalLane="201956820_1" arrivalPos="48.33" arrivalSpeed="11.26" duration="17.00" routeLength="122.35" waitingTime="0.00" waitingCount="0" stopTime="0.00" timeLoss="5.80" rerouteNo="0" devices="tripinfo_carIn124416:1 routing_carIn124416:1" vType="default_016" speedFactor="0.89" vaporized=""/>
    <tripinfo id="carIn102997:1" depart="57623.00" departLane="653473569#5_1" departPos="5.10" departSpeed="0.00" departDelay="4.80" arrival="57681.00" arrivalLane="201956811#0_1" arrivalPos="40.40" arrivalSpeed="13.58" duration="58.00" routeLength="313.24" waitingTime="14.00" waitingCount="3" stopTime="0.00" timeLoss="34.87" rerouteNo="1" devices="tripinfo_carIn102997:1 routing_carIn102997:1" vType="default_016" speedFactor="1.01" vaporized=""/>
    <tripinfo id="h645c1:1" depart="57622.00" departLane="266565295#5_1" departPos="5.10" departSpeed="0.00" departDelay="0.40" arrival="57681.00" arrivalLane="-315358253#1_1" arrivalPos="63.90" arrivalSpeed="12.75" duration="59.00" routeLength="547.76" waitingTime="5.00" waitingCount="1" stopTime="0.00" timeLoss="14.78" rerouteNo="1" devices="tripinfo_h645c1:1 routing_h645c1:1" vType="default_016" speedFactor="0.93" vaporized=""/>
    <tripinfo id="carIn925:1" depart="57649.00" departLane="124812856#0_1" departPos="5.10" departSpeed="0.00" departDelay="22.90" arrival="57682.00" arrivalLane="201956810_1" arrivalPos="71.65" arrivalSpeed="11.13" duration="33.00" routeLength="134.91" waitingTime="4.00" waitingCount="2" stopTime="0.00" timeLoss="20.50" rerouteNo="1" devices="tripinfo_carIn925:1 routing_carIn925:1" vType="default_016" speedFactor="0.89" vaporized=""/>
    <tripinfo id="carIn55090:1" depart="57666.00" departLane="-173169611#0_1" departPos="5.10" departSpeed="0.00" departDelay="1.40" arrival="57682.00" arrivalLane="201956820_1" arrivalPos="48.33" arrivalSpeed="14.28" duration="16.00" routeLength="122.35" waitingTime="0.00" waitingCount="0" stopTime="0.00" timeLoss="6.67" rerouteNo="0" devices="tripinfo_carIn55090:1 routing_carIn55090:1" vType="default_016" speedFactor="1.09" vaporized=""/>
    <tripinfo id="carIn75554:1" depart="57626.00" departLane="653473569#5_1" departPos="5.10" departSpeed="0.00" departDelay="5.20" arrival="57685.00" arrivalLane="201956811#0_1" arrivalPos="40.40" arrivalSpeed="9.53" duration="59.00" routeLength="313.24" waitingTime="7.00" waitingCount="3" stopTime="0.00" timeLoss="27.00" rerouteNo="1" devices="tripinfo_carIn75554:1 routing_carIn75554:1" vType="default_016" speedFactor="0.75" vaporized=""/>
    <tripinfo id="carIn33538:1" depart="57671.00" departLane="37386279_1" departPos="5.10" departSpeed="0.00" departDelay="0.30" arrival="57686.00" arrivalLane="-24634414#4_1" arrivalPos="22.88" arrivalSpeed="9.30" duration="15.00" routeLength="125.23" waitingTime="0.00" waitingCount="0" stopTime="0.00" timeLoss="4.42" rerouteNo="0" devices="tripinfo_carIn33538:1 routing_carIn33538:1" vType="default_016" speedFactor="1.15" vaporized=""/>
    <tripinfo id="h21130c2:1" depart="57630.00" departLane="10425609#0_1" departPos="5.10" departSpeed="0.00" departDelay="0.10" arrival="57687.00" arrivalLane="202070434#2_1" arrivalPos="39.03" arrivalSpeed="15.64" duration="57.00" routeLength="432.30" waitingTime="16.00" waitingCount="1" stopTime="0.00" timeLoss="29.95" rerouteNo="1" devices="tripinfo_h21130c2:1 routing_h21130c2:1" vType="default_016" speedFactor="1.17" vaporized=""/>
    <tripinfo id="carIn131078:1" depart="57672.00" departLane="124812856#0_1" departPos="5.10" departSpeed="0.00" departDelay="36.60" arrival="57696.00" arrivalLane="201956810_1" arrivalPos="71.65" arrivalSpeed="14.94" duration="24.00" routeLength="134.91" waitingTime="6.00" waitingCount="1" stopTime="0.00" timeLoss="14.93" rerouteNo="1" devices="tripinfo_carIn131078:1 routing_carIn131078:1" vType="default_016" speedFactor="1.15" vaporized=""/>
    <tripinfo id="carIn115641:1" depart="57614.00" departLane="-24693977#1_1" departPos="5.10" departSpeed="0.00" departDelay="0.90" arrival="57697.00" arrivalLane="-266565295#5_1" arrivalPos="172.76" arrivalSpeed="13.05" duration="83.00" routeLength="840.03" waitingTime="5.00" waitingCount="1" stopTime="0.00" timeLoss="17.18" rerouteNo="1" devices="tripinfo_carIn115641:1 routing_carIn115641:1" vType="default_016" speedFactor="0.94" vaporized=""/>
    <tripinfo id="carIn52610:1" depart="57615.00" departLane="-24693977#1_1" departPos="5.10" departSpeed="0.00" departDelay="0.10" arrival="57697.00" arrivalLane="-266565295#5_2" arrivalPos="172.76" arrivalSpeed="12.94" duration="82.00" routeLength="840.03" waitingTime="4.00" waitingCount="1" stopTime="0.00" timeLoss="16.34" rerouteNo="1" devices="tripinfo_carIn52610:1 routing_carIn52610:1" vType="default_016" speedFactor="0.95" vaporized=""/>
    <tripinfo id="carIn10158:1" depart="57622.00" departLane="-24693977#1_1" departPos="5.10" departSpeed="0.00" departDelay="0.80" arrival="57700.00" arrivalLane="-266565295#5_1" arrivalPos="172.76" arrivalSpeed="12.56" duration="78.00" routeLength="840.03" waitingTime="0.00" waitingCount="0" stopTime="0.00" timeLoss="12.15" rerouteNo="1" devices="tripinfo_carIn10158:1 routing_carIn10158:1" vType="default_016" speedFactor="0.94" vaporized=""/>
    <tripinfo id="60.39" depart="57643.00" departLane="10425609#0_1" departPos="12.10" departSpeed="0.00" departDelay="0.50" arrival="57700.00" arrivalLane="202070434#2_1" arrivalPos="39.03" arrivalSpeed="13.32" duration="57.00" routeLength="425.30" waitingTime="6.00" waitingCount="1" stopTime="0.00" timeLoss="25.38" rerouteNo="1" devices="tripinfo_60.39 routing_60.39" vType="bus" speedFactor="1.00" vaporized=""/>
    <tripinfo id="carIn12775:1" depart="57676.00" departLane="10425609#0_1" departPos="5.10" departSpeed="0.00" departDelay="0.60" arrival="57705.00" arrivalLane="-653473569#5_1" arrivalPos="73.05" arrivalSpeed="13.02" duration="29.00" routeLength="312.95" waitingTime="0.00" waitingCount="0" stopTime="0.00" timeLoss="5.72" rerouteNo="1" devices="tripinfo_carIn12775:1 routing_carIn12775:1" vType="default_016" speedFactor="1.01" vaporized=""/>
    <tripinfo id="carIn114137:1" depart="57634.00" departLane="27920078#0_1" departPos="5.10" departSpeed="0.00" departDelay="3.10" arrival="57710.00" arrivalLane="-83304175#2_1" arrivalPos="189.34" arrivalSpeed="6.55" duration="76.00" routeLength="501.51" waitingTime="7.00" waitingCount="1" stopTime="0.00" timeLoss="22.69" rerouteNo="1" devices="tripinfo_carIn114137:1 routing_carIn114137:1" vType="default_016" speedFactor="0.88" vaporized=""/>
    <tripinfo id="carIn12152:1" depart="57647.00" departLane="24599188#0.94_1" departPos="5.10" departSpeed="0.00" departDelay="0.50" arrival="57710.00" arrivalLane="24693977#1_1" arrivalPos="96.83" arrivalSpeed="12.54" duration="63.00" routeLength="511.77" waitingTime="0.00" waitingCount="0" stopTime="0.00" timeLoss="11.69" rerouteNo="1" devices="tripinfo_carIn12152:1 routing_carIn12152:1" vType="default_016" speedFactor="0.93" vaporized=""/>
    <tripinfo id="carIn22637:1" depart="57635.00" departLane="27920078#0_1" departPos="5.10" departSpeed="0.00" departDelay="2.50" arrival="57713.00" arrivalLane="-83304175#2_1" arrivalPos="189.34" arrivalSpeed="6.45" duration="78.00" routeLength="501.51" waitingTime="6.00" waitingCount="1" stopTime="0.00" timeLoss="24.21" rerouteNo="1" devices="tripinfo_carIn22637:1 routing_carIn22637:1" vType="default_016" speedFactor="0.88" vaporized=""/>
    <tripinfo id="randUni20090:1" depart="57629.00" departLane="653473569#5_1" departPos="5.10" departSpeed="0.00" departDelay="1.00" arrival="57719.00" arrivalLane="201956811#0_1" arrivalPos="40.40" arrivalSpeed="11.82" duration="90.00" routeLength="313.24" waitingTime="29.00" waitingCount="5" stopTime="0.00" timeLoss="63.94" rerouteNo="1" devices="tripinfo_randUni20090:1 routing_randUni20090:1" vType="random_016" speedFactor="0.92" vaporized=""/>
    <tripinfo id="h3688c1:1" depart="57679.00" departLane="315358253#1_1" departPos="5.10" departSpeed="0.00" departDelay="0.50" arrival="57720.00" arrivalLane="32978638#0_1" arrivalPos="49.29" arrivalSpeed="13.78" duration="41.00" routeLength="405.15" waitingTime="1.00" waitingCount="1" stopTime="0.00" timeLoss="11.45" rerouteNo="1" devices="tripinfo_h3688c1:1 routing_h3688c1:1" vType="default_016" speedFactor="1.02" vaporized=""/>
    <tripinfo id="carIn37268:1" depart="57636.00" departLane="653473569#5_1" departPos="5.10" departSpeed="0.00" departDelay="0.90" arrival="57721.00" arrivalLane="201956811#0_1" arrivalPos="40.40" arrivalSpeed="12.34" duration="85.00" routeLength="313.24" waitingTime="26.00" waitingCount="3" stopTime="0.00" timeLoss="58.18" rerouteNo="1" devices="tripinfo_carIn37268:1 routing_carIn37268:1" vType="default_016" speedFactor="0.90" vaporized=""/>
    <tripinfo id="carIn129760:1" depart="57661.00" departLane="653473569#5_1" departPos="5.10" departSpeed="0.00" departDelay="0.80" arrival="57723.00" arrivalLane="201956811#0_1" arrivalPos="40.40" arrivalSpeed="13.03" duration="62.00" routeLength="313.24" waitingTime="16.00" waitingCount="3" stopTime="0.00" timeLoss="36.85" rerouteNo="1" devices="tripinfo_carIn129760:1 routing_carIn129760:1" vType="default_016" speedFactor="0.95" vaporized=""/>
    <tripinfo id="carIn77943:1" depart="57608.00" departLane="124812856#0_1" departPos="5.10" departSpeed="0.00" departDelay="2.50" arrival="57732.00" arrivalLane="-653473569#5_1" arrivalPos="73.05" arrivalSpeed="15.00" duration="124.00" routeLength="450.40" waitingTime="71.00" waitingCount="2" stopTime="0.00" timeLoss="94.31" rerouteNo="1" devices="tripinfo_carIn77943:1 routing_carIn77943:1" vType="default_016" speedFactor="1.14" vaporized=""/>
    <tripinfo id="randUni10474:1" depart="57605.00" departLane="124812856#0_1" departPos="5.10" departSpeed="0.00" departDelay="0.20" arrival="57735.00" arrivalLane="-653473569#5_1" arrivalPos="73.05" arrivalSpeed="11.95" duration="130.00" routeLength="450.40" waitingTime="75.00" waitingCount="2" stopTime="0.00" timeLoss="93.91" rerouteNo="1" devices="tripinfo_randUni10474:1 routing_randUni10474:1" vType="random_016" speedFactor="0.93" vaporized=""/>
    <tripinfo id="carIn81046:1" depart="57611.00" departLane="124812856#0_1" departPos="5.10" departSpeed="0.00" departDelay="2.50" arrival="57737.00" arrivalLane="-653473569#5_1" arrivalPos="73.05" arrivalSpeed="11.54" duration="126.00" routeLength="450.40" waitingTime="71.00" waitingCount="2" stopTime="0.00" timeLoss="88.65" rerouteNo="1" devices="tripinfo_carIn81046:1 routing_carIn81046:1" vType="default_016" speedFactor="0.89" vaporized=""/>
    <tripinfo id="carIn20106:1" depart="57630.00" departLane="27920078#0_1" departPos="5.10" departSpeed="0.00" departDelay="2.70" arrival="57738.00" arrivalLane="201956820_2" arrivalPos="48.33" arrivalSpeed="13.19" duration="108.00" routeLength="552.44" waitingTime="45.00" waitingCount="2" stopTime="0.00" timeLoss="68.26" rerouteNo="1" devices="tripinfo_carIn20106:1 routing_carIn20106:1" vType="default_016" speedFactor="1.01" vaporized=""/>
    <tripinfo id="carIn129626:1" depart="57664.00" departLane="653473569#5_1" departPos="5.10" departSpeed="0.00" departDelay="1.60" arrival="57739.00" arrivalLane="201956811#0_1" arrivalPos="40.40" arrivalSpeed="11.79" duration="75.00" routeLength="313.24" waitingTime="19.00" waitingCount="4" stopTime="0.00" timeLoss="50.08" rerouteNo="1" devices="tripinfo_carIn129626:1 routing_carIn129626:1" vType="default_016" speedFactor="0.94" vaporized=""/>
    <tripinfo id="carIn28488:1" depart="57611.00" departLane="653473569#5_1" departPos="5.10" departSpeed="0.00" departDelay="0.80" arrival="57740.00" arrivalLane="201956820_1" arrivalPos="48.33" arrivalSpeed="12.38" duration="129.00" routeLength="437.07" waitingTime="78.00" waitingCount="2" stopTime="0.00" timeLoss="94.13" rerouteNo="1" devices="tripinfo_carIn28488:1 routing_carIn28488:1" vType="default_016" speedFactor="0.94" vaporized=""/>
    <tripinfo id="h20539c1:3" depart="57667.00" departLane="653473569#5_1" departPos="5.10" departSpeed="0.00" departDelay="2.20" arrival="57741.00" arrivalLane="201956811#0_1" arrivalPos="40.40" arrivalSpeed="11.11" duration="74.00" routeLength="313.24" waitingTime="14.00" waitingCount="4" stopTime="0.00" timeLoss="46.43" rerouteNo="1" devices="tripinfo_h20539c1:3 routing_h20539c1:3" vType="default_016" speedFactor="0.86" vaporized=""/>
    <tripinfo id="carIn91254:1" depart="57696.00" departLane="653473569#5_1" departPos="5.10" departSpeed="0.00" departDelay="0.10" arrival="57743.00" arrivalLane="201956811#0_1" arrivalPos="40.40" arrivalSpeed="12.59" duration="47.00" routeLength="313.24" waitingTime="2.00" waitingCount="2" stopTime="0.00" timeLoss="22.23" rerouteNo="1" devices="tripinfo_carIn91254:1 routing_carIn91254:1" vType="default_016" speedFactor="0.97" vaporized=""/>
    <tripinfo id="carIn13117:1" depart="57627.00" departLane="27920078#0_1" departPos="5.10" departSpeed="0.00" departDelay="1.80" arrival="57744.00" arrivalLane="201956820_1" arrivalPos="48.33" arrivalSpeed="10.82" duration="117.00" routeLength="552.44" waitingTime="47.00" waitingCount="3" stopTime="0.00" timeLoss="66.38" rerouteNo="1" devices="tripinfo_carIn13117:1 routing_carIn13117:1" vType="default_016" speedFactor="0.80" vaporized=""/>
    <tripinfo id="h317c2:1" depart="57707.00" departLane="-32978638#0_1" departPos="5.10" departSpeed="0.00" departDelay="0.10" arrival="57745.00" arrivalLane="-266565295#5_1" arrivalPos="172.76" arrivalSpeed="11.29" duration="38.00" routeLength="370.53" waitingTime="0.00" waitingCount="0" stopTime="0.00" timeLoss="5.82" rerouteNo="1" devices="tripinfo_h317c2:1 routing_h317c2:1" vType="default_016" speedFactor="0.86" vaporized=""/>
    <tripinfo id="carIn7887:1" depart="57661.00" departLane="27920078#0_1" departPos="5.10" departSpeed="0.00" departDelay="0.50" arrival="57746.00" arrivalLane="-83304175#2_1" arrivalPos="189.34" arrivalSpeed="7.03" duration="85.00" routeLength="501.51" waitingTime="21.00" waitingCount="1" stopTime="0.00" timeLoss="32.10" rerouteNo="1" devices="tripinfo_carIn7887:1 routing_carIn7887:1" vType="default_016" speedFactor="0.89" vaporized=""/>
    <tripinfo id="carIn767:1" depart="57628.00" departLane="124812856#0_1" departPos="5.10" departSpeed="0.00" departDelay="9.50" arrival="57748.00" arrivalLane="-653473569#5_1" arrivalPos="73.05" arrivalSpeed="14.11" duration="120.00" routeLength="450.40" waitingTime="61.00" waitingCount="4" stopTime="0.00" timeLoss="87.71" rerouteNo="1" devices="tripinfo_carIn767:1 routing_carIn767:1" vType="default_016" speedFactor="1.02" vaporized=""/>
    <tripinfo id="carIn12900:1" depart="57690.00" departLane="124812856#0_1" departPos="5.10" departSpeed="0.00" departDelay="41.80" arrival="57749.00" arrivalLane="201956810_1" arrivalPos="71.65" arrivalSpeed="12.39" duration="59.00" routeLength="134.91" waitingTime="28.00" waitingCount="2" stopTime="0.00" timeLoss="46.84" rerouteNo="1" devices="tripinfo_carIn12900:1 routing_carIn12900:1" vType="default_016" speedFactor="0.89" vaporized=""/>
    <tripinfo id="carIn26410:1" depart="57620.00" departLane="124812856#0_1" departPos="5.10" departSpeed="0.00" departDelay="6.50" arrival="57758.00" arrivalLane="202070434#2_2" arrivalPos="39.03" arrivalSpeed="13.22" duration="138.00" routeLength="569.75" waitingTime="68.00" waitingCount="3" stopTime="0.00" timeLoss="100.75" rerouteNo="1" devices="tripinfo_carIn26410:1 routing_carIn26410:1" vType="default_016" speedFactor="1.11" vaporized=""/>
    <tripinfo id="carIn99509:1" depart="57720.00" departLane="-32978638#0_1" departPos="5.10" departSpeed="0.00" departDelay="0.20" arrival="57759.00" arrivalLane="-315358253#1_1" arrivalPos="63.90" arrivalSpeed="13.65" duration="39.00" routeLength="422.17" waitingTime="0.00" waitingCount="0" stopTime="0.00" timeLoss="7.11" rerouteNo="1" devices="tripinfo_carIn99509:1 routing_carIn99509:1" vType="default_015" speedFactor="1.01" vaporized=""/>
    <tripinfo id="carIn96537:1" depart="57615.00" departLane="124812856#0_1" departPos="5.10" departSpeed="0.00" departDelay="3.80" arrival="57760.00" arrivalLane="202070434#2_1" arrivalPos="39.03" arrivalSpeed="12.29" duration="145.00" routeLength="569.75" waitingTime="78.00" waitingCount="3" stopTime="0.00" timeLoss="102.12" rerouteNo="1" devices="tripinfo_carIn96537:1 routing_carIn96537:1" vType="default_016" speedFactor="0.96" vaporized=""/>
    <tripinfo id="carIn51024:1" depart="57624.00" departLane="124812856#0_1" departPos="5.10" departSpeed="0.00" departDelay="7.90" arrival="57760.00" arrivalLane="202070434#2_2" arrivalPos="39.03" arrivalSpeed="9.15" duration="136.00" routeLength="569.75" waitingTime="63.00" waitingCount="2" stopTime="0.00" timeLoss="97.71" rerouteNo="1" devices="tripinfo_carIn51024:1 routing_carIn51024:1" vType="default_016" speedFactor="1.08" vaporized=""/>
    <tripinfo id="carIn106325:1" depart="57713.00" departLane="27920078#0_1" departPos="5.10" departSpeed="0.00" departDelay="0.10" arrival="57761.00" arrivalLane="-83304175#2_1" arrivalPos="189.34" arrivalSpeed="9.38" duration="48.00" routeLength="501.51" waitingTime="0.00" waitingCount="0" stopTime="0.00" timeLoss="9.45" rerouteNo="1" devices="tripinfo_carIn106325:1 routing_carIn106325:1" vType="default_016" speedFactor="1.24" vaporized=""/>
    <tripinfo id="carIn128705:1" depart="57627.00" departLane="124812856#0_1" departPos="5.10" departSpeed="0.00" departDelay="8.60" arrival="57762.00" arrivalLane="202070434#2_1" arrivalPos="39.03" arrivalSpeed="14.15" duration="135.00" routeLength="569.75" waitingTime="61.00" waitingCount="2" stopTime="0.00" timeLoss="95.65" rerouteNo="1" devices="tripinfo_carIn128705:1 routing_carIn128705:1" vType="default_016" speedFactor="1.05" vaporized=""/>
    <tripinfo id="randUni22709:1" depart="57718.00" departLane="315358253#1_1" departPos="5.10" departSpeed="0.00" departDelay="0.20" arrival="57762.00" arrivalLane="32978638#0_1" arrivalPos="49.29" arrivalSpeed="10.53" duration="44.00" routeLength="405.15" waitingTime="0.00" waitingCount="0" stopTime="0.00" timeLoss="6.57" rerouteNo="1" devices="tripinfo_randUni22709:1 routing_randUni22709:1" vType="random_016" speedFactor="0.82" vaporized=""/>
    <tripinfo id="carIn75079:1" depart="57747.00" departLane="-173169611#0_1" departPos="5.10" departSpeed="0.00" departDelay="0.60" arrival="57762.00" arrivalLane="201956820_1" arrivalPos="48.33" arrivalSpeed="13.70" duration="15.00" routeLength="122.35" waitingTime="0.00" waitingCount="0" stopTime="0.00" timeLoss="5.53" rerouteNo="0" devices="tripinfo_carIn75079:1 routing_carIn75079:1" vType="default_016" speedFactor="1.07" vaporized=""/>
    <tripinfo id="h21989c1:1" depart="57631.00" departLane="124812856#0_1" departPos="5.10" departSpeed="0.00" departDelay="10.60" arrival="57764.00" arrivalLane="202070434#2_1" arrivalPos="39.03" arrivalSpeed="14.30" duration="133.00" routeLength="569.75" waitingTime="61.00" waitingCount="2" stopTime="0.00" timeLoss="95.29" rerouteNo="1" devices="tripinfo_h21989c1:1 routing_h21989c1:1" vType="default_016" speedFactor="1.11" vaporized=""/>
    <tripinfo id="h5292c2:1" depart="57656.00" departLane="-24693977#1_1" departPos="5.10" departSpeed="0.00" departDelay="0.00" arrival="57766.00" arrivalLane="-266565295#5_1" arrivalPos="172.76" arrivalSpeed="14.34" duration="110.00" routeLength="840.03" waitingTime="32.00" waitingCount="2" stopTime="0.00" timeLoss="50.22" rerouteNo="1" devices="tripinfo_h5292c2:1 routing_h5292c2:1" vType="default_016" speedFactor="1.04" vaporized=""/>
    <tripinfo id="carIn21160:1" depart="57674.00" departLane="-24693977#1_1" departPos="5.10" departSpeed="0.00" departDelay="0.10" arrival="57767.00" arrivalLane="-266565295#5_2" arrivalPos="172.76" arrivalSpeed="13.40" duration="93.00" routeLength="840.03" waitingTime="16.00" waitingCount="1" stopTime="0.00" timeLoss="29.87" rerouteNo="1" devices="tripinfo_carIn21160:1 routing_carIn21160:1" vType="default_016" speedFactor="0.97" vaporized=""/>
    <tripinfo id="carIn90263:1" depart="57677.00" departLane="-24693977#1_1" departPos="5.10" departSpeed="0.00" departDelay="0.60" arrival="57771.00" arrivalLane="-266565295#5_1" arrivalPos="172.76" arrivalSpeed="11.75" duration="94.00" routeLength="840.03" waitingTime="8.00" waitingCount="2" stopTime="0.00" timeLoss="25.20" rerouteNo="1" devices="tripinfo_carIn90263:1 routing_carIn90263:1" vType="default_016" speedFactor="0.90" vaporized=""/>
    <tripinfo id="carIn99738:1" depart="57719.00" departLane="27920078#0_1" departPos="5.10" departSpeed="0.00" departDelay="1.30" arrival="57771.00" arrivalLane="-83304175#2_1" arrivalPos="189.34" arrivalSpeed="8.30" duration="52.00" routeLength="501.51" waitingTime="0.00" waitingCount="0" stopTime="0.00" timeLoss="9.69" rerouteNo="1" devices="tripinfo_carIn99738:1 routing_carIn99738:1" vType="default_016" speedFactor="1.12" vaporized=""/>
    <tripinfo id="h134c1:3" depart="57721.00" departLane="315358253#1_1" departPos="5.10" departSpeed="0.00" departDelay="1.60" arrival="57771.00" arrivalLane="32978638#0_1" arrivalPos="49.29" arrivalSpeed="10.61" duration="50.00" routeLength="405.15" waitingTime="3.00" waitingCount="1" stopTime="0.00" timeLoss="14.39" rerouteNo="1" devices="tripinfo_h134c1:3 routing_h134c1:3" vType="default_016" speedFactor="0.86" vaporized=""/>
    <tripinfo id="h18569c2:1" depart="57647.00" departLane="27920078#0_1" departPos="5.10" departSpeed="0.00" departDelay="7.00" arrival="57772.00" arrivalLane="-266565295#5_2" arrivalPos="172.76" arrivalSpeed="12.17" duration="125.00" routeLength="1199.37" waitingTime="6.00" waitingCount="2" stopTime="0.00" timeLoss="26.00" rerouteNo="1" devices="tripinfo_h18569c2:1 routing_h18569c2:1" vType="default_016" speedFactor="0.88" vaporized=""/>
    <tripinfo id="h19699c1:3" depart="57646.00" departLane="27920078#0_1" departPos="5.10" departSpeed="0.00" departDelay="7.60" arrival="57773.00" arrivalLane="-266565295#5_1" arrivalPos="172.76" arrivalSpeed="11.87" duration="127.00" routeLength="1199.37" waitingTime="9.00" waitingCount="2" stopTime="0.00" timeLoss="34.48" rerouteNo="1" devices="tripinfo_h19699c1:3 routing_h19699c1:3" vType="default_016" speedFactor="0.94" vaporized=""/>