<?xml version="1.0" encoding="UTF-8"?>

<!-- generated on 2024-09-17 13:09:58 by Eclipse SUMO GUI Version 1.20.0
<configuration xmlns:xsi="http://www.w3.org/2001/XMLSchema-instance" xsi:noNamespaceSchemaLocation="http://sumo.dlr.de/xsd/sumoConfiguration.xsd">

    <input>
        <net-file value="/Users/duyvuquoc/PycharmProjects/RESCO/resco_benchmark/environments/cologne3/cologne3.net.xml"/>
        <route-files value="/Users/duyvuquoc/PycharmProjects/RESCO/resco_benchmark/environments/cologne3/cologne3.rou.xml"/>
    </input>

    <output>
        <tripinfo-output value="/Users/duyvuquoc/PycharmProjects/RESCO/results/IDQN-tr0-cologne3-0-drq_norm-wait_norm/tripinfo_1.xml"/>
        <tripinfo-output.write-unfinished value="true"/>
    </output>

    <time>
        <begin value="25200"/>
        <end value="28800"/>
    </time>

    <processing>
        <time-to-teleport value="-1"/>
    </processing>

    <report>
        <no-warnings value="True"/>
        <no-step-log value="True"/>
    </report>

    <traci_server>
        <remote-port value="57344"/>
    </traci_server>

    <random_number>
        <random value="true"/>
    </random_number>

    <gui_only>
        <start value="true"/>
    </gui_only>

</configuration>
-->

<tripinfos xmlns:xsi="http://www.w3.org/2001/XMLSchema-instance" xsi:noNamespaceSchemaLocation="http://sumo.dlr.de/xsd/tripinfo_file.xsd">
    <tripinfo id="122325_406_0" depart="25208.00" departLane="319261593#12_0" departPos="4.40" departSpeed="0.00" departDelay="0.00" arrival="25244.00" arrivalLane="-31864804_0" arrivalPos="70.23" arrivalSpeed="12.06" duration="36.00" routeLength="352.97" waitingTime="0.00" waitingCount="0" stopTime="0.00" timeLoss="7.13" rerouteNo="0" devices="tripinfo_122325_406_0" vType="pkw" speedFactor="0.88" vaporized=""/>
    <tripinfo id="160296_421_0" depart="25211.00" departLane="241660955#13_0" departPos="4.40" departSpeed="0.00" departDelay="0.00" arrival="25244.00" arrivalLane="241660955#17_0" arrivalPos="110.13" arrivalSpeed="13.83" duration="33.00" routeLength="247.24" waitingTime="7.00" waitingCount="1" stopTime="0.00" timeLoss="15.98" rerouteNo="0" devices="tripinfo_160296_421_0" vType="pkw" speedFactor="1.07" vaporized=""/>
    <tripinfo id="98545_395_0" depart="25206.00" departLane="4045330_0" departPos="4.40" departSpeed="0.00" departDelay="0.00" arrival="25250.00" arrivalLane="241660955#17_0" arrivalPos="110.13" arrivalSpeed="14.72" duration="44.00" routeLength="473.04" waitingTime="0.00" waitingCount="0" stopTime="0.00" timeLoss="5.72" rerouteNo="0" devices="tripinfo_98545_395_0" vType="pkw" speedFactor="1.07" vaporized=""/>
    <tripinfo id="113109_402_0" depart="25203.00" departLane="4999334_0" departPos="4.40" departSpeed="0.00" departDelay="0.00" arrival="25254.00" arrivalLane="-31864804_0" arrivalPos="70.23" arrivalSpeed="13.94" duration="51.00" routeLength="615.92" waitingTime="0.00" waitingCount="0" stopTime="0.00" timeLoss="7.56" rerouteNo="0" devices="tripinfo_113109_402_0" vType="pkw" speedFactor="1.04" vaporized=""/>
    <tripinfo id="163719_422_0" depart="25211.00" departLane="4045330_0" departPos="4.40" departSpeed="0.00" departDelay="0.00" arrival="25255.00" arrivalLane="241660955#17_0" arrivalPos="110.13" arrivalSpeed="13.90" duration="44.00" routeLength="473.04" waitingTime="0.00" waitingCount="0" stopTime="0.00" timeLoss="5.59" rerouteNo="0" devices="tripinfo_163719_422_0" vType="pkw" speedFactor="1.07" vaporized=""/>
    <tripinfo id="73303_385_0" depart="25202.00" departLane="319261593#12_0" departPos="4.40" departSpeed="0.00" departDelay="0.00" arrival="25257.00" arrivalLane="4145590#0_0" arrivalPos="95.58" arrivalSpeed="11.61" duration="55.00" routeLength="408.95" waitingTime="8.00" waitingCount="2" stopTime="0.00" timeLoss="21.45" rerouteNo="0" devices="tripinfo_73303_385_0" vType="pkw" speedFactor="0.90" vaporized=""/>
    <tripinfo id="169122_425_0" depart="25229.00" departLane="-4999334_0" departPos="4.40" departSpeed="0.00" departDelay="1.00" arrival="25259.00" arrivalLane="-4999334_0" arrivalPos="293.22" arrivalSpeed="10.16" duration="30.00" routeLength="288.82" waitingTime="0.00" waitingCount="0" stopTime="0.00" timeLoss="3.87" rerouteNo="0" devices="tripinfo_169122_425_0" vType="pkw" speedFactor="0.80" vaporized=""/>
    <tripinfo id="141383_415_0" depart="25216.00" departLane="41910184_0" departPos="4.40" departSpeed="0.00" departDelay="0.00" arrival="25261.00" arrivalLane="4145589#0_0" arrivalPos="149.75" arrivalSpeed="7.97" duration="45.00" routeLength="368.38" waitingTime="2.00" waitingCount="1" stopTime="0.00" timeLoss="11.88" rerouteNo="0" devices="tripinfo_141383_415_0" vType="pkw" speedFactor="1.02" vaporized=""/>
    <tripinfo id="153968_420_0" depart="25227.00" departLane="319261593#12_0" departPos="4.40" departSpeed="0.00" departDelay="0.00" arrival="25261.00" arrivalLane="-31864804_0" arrivalPos="70.23" arrivalSpeed="12.35" duration="34.00" routeLength="352.97" waitingTime="0.00" waitingCount="0" stopTime="0.00" timeLoss="6.96" rerouteNo="0" devices="tripinfo_153968_420_0" vType="pkw" speedFactor="0.95" vaporized=""/>
    <tripinfo id="132667_410_0" depart="25212.00" departLane="-31800061#0_0" departPos="4.40" departSpeed="0.00" departDelay="0.00" arrival="25262.00" arrivalLane="-4999334_0" arrivalPos="293.22" arrivalSpeed="12.87" duration="50.00" routeLength="492.72" waitingTime="0.00" waitingCount="0" stopTime="0.00" timeLoss="6.06" rerouteNo="0" devices="tripinfo_132667_410_0" vType="pkw" speedFactor="0.94" vaporized=""/>
    <tripinfo id="68266_381_0" depart="25229.00" departLane="4045329#5_0" departPos="4.40" departSpeed="0.00" departDelay="0.00" arrival="25262.00" arrivalLane="41910185#0_0" arrivalPos="127.86" arrivalSpeed="8.50" duration="33.00" routeLength="267.37" waitingTime="0.00" waitingCount="0" stopTime="0.00" timeLoss="7.45" rerouteNo="0" devices="tripinfo_68266_381_0" vType="pkw" speedFactor="1.04" vaporized=""/>
    <tripinfo id="132022_410_0" depart="25213.00" departLane="241660957#0_0" departPos="4.40" departSpeed="0.00" departDelay="0.00" arrival="25265.00" arrivalLane="4999331#0_1" arrivalPos="373.64" arrivalSpeed="13.02" duration="52.00" routeLength="489.64" waitingTime="7.00" waitingCount="1" stopTime="0.00" timeLoss="17.59" rerouteNo="0" devices="tripinfo_132022_410_0" vType="pkw" speedFactor="1.02" vaporized=""/>
    <tripinfo id="140163_414_0" depart="25244.00" departLane="241660955#13_0" departPos="4.40" departSpeed="0.00" departDelay="0.00" arrival="25265.00" arrivalLane="-41910184_0" arrivalPos="185.90" arrivalSpeed="12.27" duration="21.00" routeLength="216.76" waitingTime="0.00" waitingCount="0" stopTime="0.00" timeLoss="3.42" rerouteNo="0" devices="tripinfo_140163_414_0" vType="pkw" speedFactor="0.92" vaporized=""/>
    <tripinfo id="73223_384_0" depart="25204.00" departLane="241660957#0_0" departPos="4.40" departSpeed="0.00" departDelay="0.00" arrival="25267.00" arrivalLane="4999331#0_0" arrivalPos="373.64" arrivalSpeed="13.19" duration="63.00" routeLength="489.64" waitingTime="16.00" waitingCount="1" stopTime="0.00" timeLoss="26.54" rerouteNo="0" devices="tripinfo_73223_384_0" vType="pkw" speedFactor="0.99" vaporized=""/>
    <tripinfo id="120846_405_0" depart="25207.00" departLane="31864804_0" departPos="4.40" departSpeed="0.00" departDelay="0.00" arrival="25268.00" arrivalLane="-4999334_0" arrivalPos="293.22" arrivalSpeed="13.09" duration="61.00" routeLength="621.86" waitingTime="3.00" waitingCount="1" stopTime="0.00" timeLoss="15.94" rerouteNo="0" devices="tripinfo_120846_405_0" vType="pkw" speedFactor="0.99" vaporized=""/>
    <tripinfo id="157649_421_0" depart="25230.00" departLane="319261593#12_0" departPos="4.40" departSpeed="0.00" departDelay="1.00" arrival="25268.00" arrivalLane="-31864804_0" arrivalPos="70.23" arrivalSpeed="10.44" duration="38.00" routeLength="352.97" waitingTime="0.00" waitingCount="0" stopTime="0.00" timeLoss="6.45" rerouteNo="0" devices="tripinfo_157649_421_0" vType="pkw" speedFactor="0.82" vaporized=""/>
    <tripinfo id="131963_410_0" depart="25223.00" departLane="-31800061#0_0" departPos="4.40" departSpeed="0.00" departDelay="0.00" arrival="25270.00" arrivalLane="-4999334_0" arrivalPos="293.22" arrivalSpeed="14.44" duration="47.00" routeLength="492.72" waitingTime="0.00" waitingCount="0" stopTime="0.00" timeLoss="9.97" rerouteNo="0" devices="tripinfo_131963_410_0" vType="pkw" speedFactor="1.11" vaporized=""/>
    <tripinfo id="81370_389_0" depart="25232.00" departLane="4045329#5_0" departPos="4.40" departSpeed="0.00" departDelay="1.00" arrival="25270.00" arrivalLane="-4045330_0" arrivalPos="128.76" arrivalSpeed="7.48" duration="38.00" routeLength="329.66" waitingTime="0.00" waitingCount="0" stopTime="0.00" timeLoss="8.18" rerouteNo="0" devices="tripinfo_81370_389_0" vType="pkw" speedFactor="1.03" vaporized=""/>
    <tripinfo id="140878_414_0" depart="25231.00" departLane="-130160207#0_0" departPos="4.40" departSpeed="0.00" departDelay="0.00" arrival="25270.00" arrivalLane="241660955#17_0" arrivalPos="110.13" arrivalSpeed="14.66" duration="39.00" routeLength="250.75" waitingTime="6.00" waitingCount="1" stopTime="0.00" timeLoss="15.92" rerouteNo="0" devices="tripinfo_140878_414_0" vType="pkw" speedFactor="1.06" vaporized=""/>
    <tripinfo id="161160_421_0" depart="25225.00" departLane="241660957#0_0" departPos="4.40" departSpeed="0.00" departDelay="0.00" arrival="25272.00" arrivalLane="4999331#0_0" arrivalPos="373.64" arrivalSpeed="11.84" duration="47.00" routeLength="489.64" waitingTime="0.00" waitingCount="0" stopTime="0.00" timeLoss="6.17" rerouteNo="0" devices="tripinfo_161160_421_0" vType="pkw" speedFactor="0.87" vaporized=""/>
    <tripinfo id="163598_422_0" depart="25236.00" departLane="-130160207#0_0" departPos="4.40" departSpeed="0.00" departDelay="0.00" arrival="25273.00" arrivalLane="241660955#17_0" arrivalPos="110.13" arrivalSpeed="11.73" duration="37.00" routeLength="250.75" waitingTime="3.00" waitingCount="1" stopTime="0.00" timeLoss="10.64" rerouteNo="0" devices="tripinfo_163598_422_0" vType="pkw" speedFactor="0.94" vaporized=""/>
    <tripinfo id="132705_410_0" depart="25200.00" departLane="-5229966#3_0" departPos="4.40" departSpeed="0.00" departDelay="0.00" arrival="25276.00" arrivalLane="4045332#0_0" arrivalPos="114.41" arrivalSpeed="7.21" duration="76.00" routeLength="721.22" waitingTime="5.00" waitingCount="2" stopTime="0.00" timeLoss="18.45" rerouteNo="0" devices="tripinfo_132705_410_0" vType="pkw" speedFactor="1.02" vaporized=""/>
    <tripinfo id="149066_417_0" depart="25235.00" departLane="31864804_0" departPos="4.40" departSpeed="0.00" departDelay="0.00" arrival="25278.00" arrivalLane="4999331#0_1" arrivalPos="373.64" arrivalSpeed="15.58" duration="43.00" routeLength="492.92" waitingTime="0.00" waitingCount="0" stopTime="0.00" timeLoss="11.39" rerouteNo="0" devices="tripinfo_149066_417_0" vType="pkw" speedFactor="1.13" vaporized=""/>
    <tripinfo id="111294_401_0" depart="25211.00" departLane="-5229966#3_0" departPos="4.40" departSpeed="0.00" departDelay="0.00" arrival="25281.00" arrivalLane="4145590#0_0" arrivalPos="95.58" arrivalSpeed="13.76" duration="70.00" routeLength="453.70" waitingTime="24.00" waitingCount="1" stopTime="0.00" timeLoss="37.79" rerouteNo="0" devices="tripinfo_111294_401_0" vType="pkw" speedFactor="1.03" vaporized=""/>
    <tripinfo id="118698_405_0" depart="25214.00" departLane="-5229966#3_0" departPos="4.40" departSpeed="0.00" departDelay="1.00" arrival="25281.00" arrivalLane="4145590#0_1" arrivalPos="95.58" arrivalSpeed="13.01" duration="67.00" routeLength="453.70" waitingTime="20.00" waitingCount="1" stopTime="0.00" timeLoss="32.29" rerouteNo="0" devices="tripinfo_118698_405_0" vType="pkw" speedFactor="0.96" vaporized=""/>
    <tripinfo id="100929_396_0" depart="25233.00" departLane="-5229966#3_0" departPos="4.40" departSpeed="0.00" departDelay="0.00" arrival="25283.00" arrivalLane="4145590#0_0" arrivalPos="95.58" arrivalSpeed="14.80" duration="50.00" routeLength="453.70" waitingTime="4.00" waitingCount="1" stopTime="0.00" timeLoss="19.32" rerouteNo="0" devices="tripinfo_100929_396_0" vType="pkw" speedFactor="1.09" vaporized=""/>
    <tripinfo id="106913_399_0" depart="25201.00" departLane="31864804_0" departPos="4.40" departSpeed="0.00" departDelay="0.00" arrival="25285.00" arrivalLane="241660955#17_0" arrivalPos="110.13" arrivalSpeed="14.07" duration="84.00" routeLength="875.23" waitingTime="9.00" waitingCount="1" stopTime="0.00" timeLoss="22.38" rerouteNo="0" devices="tripinfo_106913_399_0" vType="pkw" speedFactor="1.03" vaporized=""/>
    <tripinfo id="111993_401_0" depart="25251.00" departLane="4045329#5_0" departPos="4.40" departSpeed="0.00" departDelay="0.00" arrival="25285.00" arrivalLane="41910185#0_0" arrivalPos="127.86" arrivalSpeed="7.39" duration="34.00" routeLength="267.37" waitingTime="0.00" waitingCount="0" stopTime="0.00" timeLoss="5.76" rerouteNo="0" devices="tripinfo_111993_401_0" vType="pkw" speedFactor="0.95" vaporized=""/>
    <tripinfo id="125978_406_0" depart="25249.00" departLane="-5229966#3_0" departPos="4.40" departSpeed="0.00" departDelay="0.00" arrival="25286.00" arrivalLane="4145590#0_0" arrivalPos="95.58" arrivalSpeed="15.09" duration="37.00" routeLength="453.70" waitingTime="0.00" waitingCount="0" stopTime="0.00" timeLoss="7.80" rerouteNo="0" devices="tripinfo_125978_406_0" vType="pkw" speedFactor="1.15" vaporized=""/>
    <tripinfo id="166826_424_0" depart="25240.00" departLane="41910184_0" departPos="4.40" departSpeed="0.00" departDelay="0.00" arrival="25287.00" arrivalLane="4145589#0_0" arrivalPos="149.75" arrivalSpeed="7.22" duration="47.00" routeLength="368.38" waitingTime="0.00" waitingCount="0" stopTime="0.00" timeLoss="8.25" rerouteNo="0" devices="tripinfo_166826_424_0" vType="pkw" speedFactor="0.89" vaporized=""/>
    <tripinfo id="85241_390_0" depart="25243.00" departLane="41910184_0" departPos="4.40" departSpeed="0.00" departDelay="1.00" arrival="25287.00" arrivalLane="241660955#17_1" arrivalPos="110.13" arrivalSpeed="14.96" duration="44.00" routeLength="451.07" waitingTime="1.00" waitingCount="1" stopTime="0.00" timeLoss="14.11" rerouteNo="0" devices="tripinfo_85241_390_0" vType="pkw" speedFactor="1.10" vaporized=""/>
    <tripinfo id="161578_421_0" depart="25264.00" departLane="-4999334_0" departPos="4.40" departSpeed="0.00" departDelay="1.00" arrival="25289.00" arrivalLane="-4999334_0" arrivalPos="293.22" arrivalSpeed="13.18" duration="25.00" routeLength="288.82" waitingTime="0.00" waitingCount="0" stopTime="0.00" timeLoss="4.06" rerouteNo="0" devices="tripinfo_161578_421_0" vType="pkw" speedFactor="1.02" vaporized=""/>
    <tripinfo id="161841_421_0" depart="25244.00" departLane="31864804_0" departPos="4.40" departSpeed="0.00" departDelay="0.00" arrival="25291.00" arrivalLane="4999331#0_0" arrivalPos="373.64" arrivalSpeed="11.59" duration="47.00" routeLength="492.92" waitingTime="0.00" waitingCount="0" stopTime="0.00" timeLoss="7.23" rerouteNo="0" devices="tripinfo_161841_421_0" vType="pkw" speedFactor="0.91" vaporized=""/>
    <tripinfo id="150954_418_0" depart="25249.00" departLane="-130160207#0_0" departPos="4.40" departSpeed="0.00" departDelay="0.00" arrival="25291.00" arrivalLane="-41910184_0" arrivalPos="185.90" arrivalSpeed="14.96" duration="42.00" routeLength="470.87" waitingTime="0.00" waitingCount="0" stopTime="0.00" timeLoss="4.80" rerouteNo="0" devices="tripinfo_150954_418_0" vType="pkw" speedFactor="1.10" vaporized=""/>
    <tripinfo id="158876_421_0" depart="25255.00" departLane="319261593#12_0" departPos="4.40" departSpeed="0.00" departDelay="0.00" arrival="25291.00" arrivalLane="-31864804_0" arrivalPos="70.23" arrivalSpeed="10.90" duration="36.00" routeLength="352.97" waitingTime="0.00" waitingCount="0" stopTime="0.00" timeLoss="5.25" rerouteNo="0" devices="tripinfo_158876_421_0" vType="pkw" speedFactor="0.85" vaporized=""/>
    <tripinfo id="168647_425_0" depart="25267.00" departLane="-4999334_0" departPos="4.40" departSpeed="0.00" departDelay="1.00" arrival="25293.00" arrivalLane="-4999334_0" arrivalPos="293.22" arrivalSpeed="13.21" duration="26.00" routeLength="288.82" waitingTime="0.00" waitingCount="0" stopTime="0.00" timeLoss="3.84" rerouteNo="0" devices="tripinfo_168647_425_0" vType="pkw" speedFactor="0.95" vaporized=""/>
    <tripinfo id="83081_390_0" depart="25228.00" departLane="31864804_0" departPos="4.40" departSpeed="0.00" departDelay="0.00" arrival="25295.00" arrivalLane="-4999334_0" arrivalPos="293.22" arrivalSpeed="14.03" duration="67.00" routeLength="688.22" waitingTime="2.00" waitingCount="1" stopTime="0.00" timeLoss="20.57" rerouteNo="0" devices="tripinfo_83081_390_0" vType="pkw" speedFactor="1.09" vaporized=""/>
    <tripinfo id="160813_421_0" depart="25253.00" departLane="41910184_0" departPos="4.40" departSpeed="0.00" departDelay="0.00" arrival="25297.00" arrivalLane="4145589#0_0" arrivalPos="149.75" arrivalSpeed="8.60" duration="44.00" routeLength="368.38" waitingTime="0.00" waitingCount="0" stopTime="0.00" timeLoss="12.69" rerouteNo="0" devices="tripinfo_160813_421_0" vType="pkw" speedFactor="1.10" vaporized=""/>
    <tripinfo id="123109_406_0" depart="25260.00" departLane="241660957#0_0" departPos="4.40" departSpeed="0.00" departDelay="0.00" arrival="25298.00" arrivalLane="4999331#0_0" arrivalPos="373.64" arrivalSpeed="14.11" duration="38.00" routeLength="489.64" waitingTime="0.00" waitingCount="0" stopTime="0.00" timeLoss="4.49" rerouteNo="0" devices="tripinfo_123109_406_0" vType="pkw" speedFactor="1.08" vaporized=""/>
    <tripinfo id="163366_422_0" depart="25253.00" departLane="-130160207#0_0" departPos="4.40" departSpeed="0.00" departDelay="0.00" arrival="25300.00" arrivalLane="241660955#17_0" arrivalPos="110.13" arrivalSpeed="13.53" duration="47.00" routeLength="250.75" waitingTime="15.00" waitingCount="1" stopTime="0.00" timeLoss="23.61" rerouteNo="0" devices="tripinfo_163366_422_0" vType="pkw" speedFactor="1.05" vaporized=""/>
    <tripinfo id="100301_396_0" depart="25260.00" departLane="-241660955#17_0" departPos="4.40" departSpeed="0.00" departDelay="0.00" arrival="25301.00" arrivalLane="130160207#0_0" arrivalPos="135.18" arrivalSpeed="7.12" duration="41.00" routeLength="257.86" waitingTime="4.00" waitingCount="1" stopTime="0.00" timeLoss="15.45" rerouteNo="0" devices="tripinfo_100301_396_0" vType="pkw" speedFactor="1.00" vaporized=""/>
    <tripinfo id="141513_415_0" depart="25233.00" departLane="4999334_0" departPos="4.40" departSpeed="0.00" departDelay="0.00" arrival="25302.00" arrivalLane="4145590#0_1" arrivalPos="95.58" arrivalSpeed="12.97" duration="69.00" routeLength="615.60" waitingTime="8.00" waitingCount="1" stopTime="0.00" timeLoss="21.49" rerouteNo="0" devices="tripinfo_141513_415_0" vType="pkw" speedFactor="0.94" vaporized=""/>
    <tripinfo id="155750_420_0" depart="25256.00" departLane="-130160207#0_0" departPos="4.40" departSpeed="0.00" departDelay="0.00" arrival="25302.00" arrivalLane="241660955#17_0" arrivalPos="110.13" arrivalSpeed="14.20" duration="46.00" routeLength="250.75" waitingTime="14.00" waitingCount="1" stopTime="0.00" timeLoss="22.04" rerouteNo="0" devices="tripinfo_155750_420_0" vType="pkw" speedFactor="1.03" vaporized=""/>
    <tripinfo id="173797_427_0" depart="25226.00" departLane="-41910186_0" departPos="4.40" departSpeed="0.00" departDelay="0.00" arrival="25304.00" arrivalLane="4145590#0_1" arrivalPos="95.58" arrivalSpeed="14.27" duration="78.00" routeLength="894.77" waitingTime="1.00" waitingCount="1" stopTime="0.00" timeLoss="18.30" rerouteNo="0" devices="tripinfo_173797_427_0" vType="pkw" speedFactor="1.09" vaporized=""/>
    <tripinfo id="76573_386_0" depart="25275.00" departLane="-241660955#17_0" departPos="4.40" departSpeed="0.00" departDelay="0.00" arrival="25304.00" arrivalLane="130160207#0_0" arrivalPos="135.18" arrivalSpeed="9.11" duration="29.00" routeLength="257.86" waitingTime="0.00" waitingCount="0" stopTime="0.00" timeLoss="5.05" rerouteNo="0" devices="tripinfo_76573_386_0" vType="pkw" speedFactor="1.11" vaporized=""/>
    <tripinfo id="79538_387_0" depart="25216.00" departLane="-5229966#3_0" departPos="4.40" departSpeed="0.00" departDelay="1.00" arrival="25305.00" arrivalLane="4999331#0_1" arrivalPos="373.64" arrivalSpeed="13.44" duration="89.00" routeLength="731.93" waitingTime="19.00" waitingCount="1" stopTime="0.00" timeLoss="37.21" rerouteNo="0" devices="tripinfo_79538_387_0" vType="pkw" speedFactor="1.04" vaporized=""/>
    <tripinfo id="126562_407_0" depart="25262.00" departLane="241660957#0_0" departPos="4.40" departSpeed="0.00" departDelay="0.00" arrival="25306.00" arrivalLane="4999331#0_0" arrivalPos="373.64" arrivalSpeed="12.35" duration="44.00" routeLength="489.64" waitingTime="0.00" waitingCount="0" stopTime="0.00" timeLoss="5.62" rerouteNo="0" devices="tripinfo_126562_407_0" vType="pkw" speedFactor="0.94" vaporized=""/>
    <tripinfo id="149951_417_0" depart="25274.00" departLane="-130160207#0_0" departPos="4.40" departSpeed="0.00" departDelay="0.00" arrival="25306.00" arrivalLane="241660955#17_0" arrivalPos="110.13" arrivalSpeed="14.76" duration="32.00" routeLength="250.75" waitingTime="1.00" waitingCount="1" stopTime="0.00" timeLoss="9.96" rerouteNo="0" devices="tripinfo_149951_417_0" vType="pkw" speedFactor="1.15" vaporized=""/>
    <tripinfo id="163790_422_0" depart="25264.00" departLane="-130160207#0_0" departPos="4.40" departSpeed="0.00" departDelay="0.00" arrival="25311.00" arrivalLane="130160207#0_0" arrivalPos="135.18" arrivalSpeed="8.39" duration="47.00" routeLength="270.63" waitingTime="8.00" waitingCount="1" stopTime="0.00" timeLoss="17.73" rerouteNo="0" devices="tripinfo_163790_422_0" vType="pkw" speedFactor="1.13" vaporized=""/>
    <tripinfo id="153005_419_0" depart="25270.00" departLane="41910184_0" departPos="4.40" departSpeed="0.00" departDelay="0.00" arrival="25311.00" arrivalLane="4145589#0_0" arrivalPos="149.75" arrivalSpeed="8.30" duration="41.00" routeLength="368.38" waitingTime="0.00" waitingCount="0" stopTime="0.00" timeLoss="7.66" rerouteNo="0" devices="tripinfo_153005_419_0" vType="pkw" speedFactor="1.04" vaporized=""/>
    <tripinfo id="174028_427_0" depart="25233.00" departLane="319261593#12_0" departPos="4.40" departSpeed="0.00" departDelay="1.00" arrival="25324.00" arrivalLane="4145590#0_0" arrivalPos="95.58" arrivalSpeed="12.28" duration="91.00" routeLength="408.95" waitingTime="45.00" waitingCount="1" stopTime="0.00" timeLoss="59.45" rerouteNo="0" devices="tripinfo_174028_427_0" vType="pkw" speedFactor="0.94" vaporized=""/>
    <tripinfo id="118681_405_0" depart="25237.00" departLane="4999334_0" departPos="4.40" departSpeed="0.00" departDelay="0.00" arrival="25325.00" arrivalLane="-31864804_0" arrivalPos="70.23" arrivalSpeed="13.40" duration="88.00" routeLength="615.92" waitingTime="30.00" waitingCount="1" stopTime="0.00" timeLoss="41.99" rerouteNo="0" devices="tripinfo_118681_405_0" vType="pkw" speedFactor="0.97" vaporized=""/>
    <tripinfo id="137478_412_0" depart="25248.00" departLane="4045330_0" departPos="4.40" departSpeed="0.00" departDelay="0.00" arrival="25325.00" arrivalLane="241660955#17_0" arrivalPos="110.13" arrivalSpeed="14.52" duration="77.00" routeLength="473.04" waitingTime="26.00" waitingCount="1" stopTime="0.00" timeLoss="38.44" rerouteNo="0" devices="tripinfo_137478_412_0" vType="pkw" speedFactor="1.06" vaporized=""/>
    <tripinfo id="165473_423_0" depart="25267.00" departLane="41910186_0" departPos="4.40" departSpeed="0.00" departDelay="0.00" arrival="25325.00" arrivalLane="-31864804_1" arrivalPos="70.23" arrivalSpeed="13.63" duration="58.00" routeLength="565.92" waitingTime="3.00" waitingCount="1" stopTime="0.00" timeLoss="16.84" rerouteNo="0" devices="tripinfo_165473_423_0" vType="pkw" speedFactor="0.99" vaporized=""/>
    <tripinfo id="143042_415_0" depart="25300.00" departLane="31864804_0" departPos="4.40" departSpeed="0.00" departDelay="0.00" arrival="25326.00" arrivalLane="4145590#0_0" arrivalPos="95.58" arrivalSpeed="13.95" duration="26.00" routeLength="195.56" waitingTime="4.00" waitingCount="1" stopTime="0.00" timeLoss="12.38" rerouteNo="0" devices="tripinfo_143042_415_0" vType="pkw" speedFactor="1.04" vaporized=""/>
    <tripinfo id="170585_426_0" depart="25288.00" departLane="241660957#0_0" departPos="4.40" departSpeed="0.00" departDelay="0.00" arrival="25328.00" arrivalLane="4999331#0_0" arrivalPos="373.64" arrivalSpeed="14.15" duration="40.00" routeLength="489.64" waitingTime="0.00" waitingCount="0" stopTime="0.00" timeLoss="5.77" rerouteNo="0" devices="tripinfo_170585_426_0" vType="pkw" speedFactor="1.04" vaporized=""/>
    <tripinfo id="155359_420_0" depart="25288.00" departLane="31864804_0" departPos="4.40" departSpeed="0.00" departDelay="0.00" arrival="25328.00" arrivalLane="-31864804_1" arrivalPos="70.23" arrivalSpeed="12.10" duration="40.00" routeLength="140.71" waitingTime="17.00" waitingCount="1" stopTime="0.00" timeLoss="27.81" rerouteNo="0" devices="tripinfo_155359_420_0" vType="pkw" speedFactor="0.90" vaporized=""/>
    <tripinfo id="149148_417_0" depart="25279.00" departLane="-130160207#0_0" departPos="4.40" departSpeed="0.00" departDelay="0.00" arrival="25329.00" arrivalLane="-41910184_0" arrivalPos="185.90" arrivalSpeed="11.83" duration="50.00" routeLength="470.87" waitingTime="0.00" waitingCount="0" stopTime="0.00" timeLoss="5.82" rerouteNo="0" devices="tripinfo_149148_417_0" vType="pkw" speedFactor="0.92" vaporized=""/>
    <tripinfo id="71667_383_0" depart="25276.00" departLane="241660957#0_0" departPos="4.40" departSpeed="0.00" departDelay="0.00" arrival="25330.00" arrivalLane="4999331#0_1" arrivalPos="373.64" arrivalSpeed="14.38" duration="54.00" routeLength="489.64" waitingTime="9.00" waitingCount="1" stopTime="0.00" timeLoss="21.88" rerouteNo="0" devices="tripinfo_71667_383_0" vType="pkw" speedFactor="1.12" vaporized=""/>
    <tripinfo id="144088_416_0" depart="25303.00" departLane="241660955#6_0" departPos="4.40" departSpeed="0.00" departDelay="0.00" arrival="25333.00" arrivalLane="-4999334_0" arrivalPos="293.22" arrivalSpeed="14.32" duration="30.00" routeLength="357.51" waitingTime="0.00" waitingCount="0" stopTime="0.00" timeLoss="5.88" rerouteNo="0" devices="tripinfo_144088_416_0" vType="pkw" speedFactor="1.07" vaporized=""/>
    <tripinfo id="173932_427_0" depart="25275.00" departLane="-41910185#2_0" departPos="4.40" departSpeed="0.00" departDelay="0.00" arrival="25336.00" arrivalLane="241660955#17_0" arrivalPos="110.13" arrivalSpeed="12.24" duration="61.00" routeLength="545.38" waitingTime="1.00" waitingCount="1" stopTime="0.00" timeLoss="11.20" rerouteNo="0" devices="tripinfo_173932_427_0" vType="pkw" speedFactor="0.92" vaporized=""/>
    <tripinfo id="97604_395_0" depart="25295.00" departLane="319261593#12_0" departPos="4.40" departSpeed="0.00" departDelay="0.00" arrival="25339.00" arrivalLane="-31864804_0" arrivalPos="70.23" arrivalSpeed="13.77" duration="44.00" routeLength="367.00" waitingTime="9.00" waitingCount="1" stopTime="0.00" timeLoss="19.53" rerouteNo="0" devices="tripinfo_97604_395_0" vType="pkw" speedFactor="1.08" vaporized=""/>
    <tripinfo id="168091_425_0" depart="25282.00" departLane="-130160207#0_0" departPos="4.40" departSpeed="0.00" departDelay="1.00" arrival="25340.00" arrivalLane="-41910184_0" arrivalPos="185.90" arrivalSpeed="12.21" duration="58.00" routeLength="470.87" waitingTime="4.00" waitingCount="1" stopTime="0.00" timeLoss="12.99" rerouteNo="0" devices="tripinfo_168091_425_0" vType="pkw" speedFactor="0.91" vaporized=""/>
    <tripinfo id="84339_390_0" depart="25297.00" departLane="319261593#12_0" departPos="4.40" departSpeed="0.00" departDelay="0.00" arrival="25341.00" arrivalLane="4145590#0_1" arrivalPos="95.58" arrivalSpeed="11.60" duration="44.00" routeLength="383.82" waitingTime="1.00" waitingCount="1" stopTime="0.00" timeLoss="11.96" rerouteNo="0" devices="tripinfo_84339_390_0" vType="pkw" speedFactor="0.87" vaporized=""/>
    <tripinfo id="147523_416_0" depart="25297.00" departLane="241660957#0_0" departPos="4.40" departSpeed="0.00" departDelay="0.00" arrival="25341.00" arrivalLane="4999331#0_0" arrivalPos="373.64" arrivalSpeed="12.53" duration="44.00" routeLength="489.64" waitingTime="0.00" waitingCount="0" stopTime="0.00" timeLoss="4.80" rerouteNo="0" devices="tripinfo_147523_416_0" vType="pkw" speedFactor="0.91" vaporized=""/>
    <tripinfo id="126024_407_0" depart="25300.00" departLane="319261593#12_0" departPos="4.40" departSpeed="0.00" departDelay="2.00" arrival="25341.00" arrivalLane="-31864804_0" arrivalPos="70.23" arrivalSpeed="15.64" duration="41.00" routeLength="367.00" waitingTime="2.00" waitingCount="1" stopTime="0.00" timeLoss="18.64" rerouteNo="0" devices="tripinfo_126024_407_0" vType="pkw" speedFactor="1.21" vaporized=""/>
    <tripinfo id="67548_381_0" depart="25289.00" departLane="-41910185#2_0" departPos="4.40" departSpeed="0.00" departDelay="1.00" arrival="25343.00" arrivalLane="241660955#10_0" arrivalPos="56.57" arrivalSpeed="13.87" duration="54.00" routeLength="191.84" waitingTime="24.00" waitingCount="1" stopTime="0.00" timeLoss="34.04" rerouteNo="0" devices="tripinfo_67548_381_0" vType="pkw" speedFactor="1.03" vaporized=""/>
    <tripinfo id="80569_388_0" depart="25309.00" departLane="319261593#12_0" departPos="4.40" departSpeed="0.00" departDelay="0.00" arrival="25344.00" arrivalLane="4145590#0_1" arrivalPos="95.58" arrivalSpeed="13.29" duration="35.00" routeLength="383.14" waitingTime="0.00" waitingCount="0" stopTime="0.00" timeLoss="7.86" rerouteNo="0" devices="tripinfo_80569_388_0" vType="pkw" speedFactor="1.02" vaporized=""/>