<?xml version="1.0" encoding="UTF-8"?>

<!-- generated on 2024-09-17 13:13:15 by Eclipse SUMO GUI Version 1.20.0
<configuration xmlns:xsi="http://www.w3.org/2001/XMLSchema-instance" xsi:noNamespaceSchemaLocation="http://sumo.dlr.de/xsd/sumoConfiguration.xsd">

    <input>
        <net-file value="/Users/duyvuquoc/PycharmProjects/RESCO/resco_benchmark/environments/ingolstadt1/ingolstadt1.net.xml"/>
        <route-files value="/Users/duyvuquoc/PycharmProjects/RESCO/resco_benchmark/environments/ingolstadt1/ingolstadt1.rou.xml"/>
    </input>

    <output>
        <tripinfo-output value="/Users/duyvuquoc/PycharmProjects/RESCO/results/IDQN-tr0-ingolstadt1-0-drq_norm-wait_norm/tripinfo_1.xml"/>
        <tripinfo-output.write-unfinished value="true"/>
    </output>

    <time>
        <begin value="57600"/>
        <end value="61200"/>
    </time>

    <processing>
        <time-to-teleport value="-1"/>
    </processing>

    <report>
        <no-warnings value="True"/>
        <no-step-log value="True"/>
    </report>

    <traci_server>
        <remote-port value="57379"/>
    </traci_server>

    <random_number>
        <random value="true"/>
    </random_number>

    <gui_only>
        <start value="true"/>
    </gui_only>

</configuration>
-->

<tripinfos xmlns:xsi="http://www.w3.org/2001/XMLSchema-instance" xsi:noNamespaceSchemaLocation="http://sumo.dlr.de/xsd/tripinfo_file.xsd">
    <tripinfo id="carIn105842:1" depart="57601.00" departLane="653473569#5_1" departPos="5.10" departSpeed="0.00" departDelay="0.80" arrival="57625.00" arrivalLane="124812857#0_1" arrivalPos="143.49" arrivalSpeed="14.40" duration="24.00" routeLength="239.18" waitingTime="0.00" waitingCount="0" stopTime="0.00" timeLoss="6.92" rerouteNo="1" devices="tripinfo_carIn105842:1 routing_carIn105842:1" vType="default_016" speedFactor="1.08" vaporized=""/>
    <tripinfo id="h8750c1:1" depart="57609.00" departLane="104010354_1" departPos="5.10" departSpeed="0.00" departDelay="0.50" arrival="57628.00" arrivalLane="124812857#0_2" arrivalPos="143.49" arrivalSpeed="14.22" duration="19.00" routeLength="211.78" waitingTime="0.00" waitingCount="0" stopTime="0.00" timeLoss="4.63" rerouteNo="0" devices="tripinfo_h8750c1:1 routing_h8750c1:1" vType="default_016" speedFactor="1.07" vaporized=""/>
    <tripinfo id="carIn28488:1" depart="57611.00" departLane="653473569#5_1" departPos="5.10" departSpeed="0.00" departDelay="0.80" arrival="57633.00" arrivalLane="124812857#0_1" arrivalPos="143.49" arrivalSpeed="15.38" duration="22.00" routeLength="239.18" waitingTime="0.00" waitingCount="0" stopTime="0.00" timeLoss="5.50" rerouteNo="1" devices="tripinfo_carIn28488:1 routing_carIn28488:1" vType="default_016" speedFactor="1.13" vaporized=""/>
    <tripinfo id="carIn21562:1" depart="57611.00" departLane="201963537#1_1" departPos="5.10" departSpeed="0.00" departDelay="0.20" arrival="57635.00" arrivalLane="-653473569#5_1" arrivalPos="73.05" arrivalSpeed="16.03" duration="24.00" routeLength="256.07" waitingTime="0.00" waitingCount="0" stopTime="0.00" timeLoss="8.24" rerouteNo="1" devices="tripinfo_carIn21562:1 routing_carIn21562:1" vType="default_016" speedFactor="1.23" vaporized=""/>
    <tripinfo id="carIn106322:1" depart="57614.00" departLane="653473569#5_1" departPos="5.10" departSpeed="0.00" departDelay="2.20" arrival="57638.00" arrivalLane="124812857#0_1" arrivalPos="143.49" arrivalSpeed="12.53" duration="24.00" routeLength="239.18" waitingTime="0.00" waitingCount="0" stopTime="0.00" timeLoss="5.80" rerouteNo="1" devices="tripinfo_carIn106322:1 routing_carIn106322:1" vType="default_016" speedFactor="0.98" vaporized=""/>
    <tripinfo id="carIn28951:1" depart="57613.00" departLane="201963537#1_1" departPos="5.10" departSpeed="0.00" departDelay="0.30" arrival="57642.00" arrivalLane="-653473569#5_1" arrivalPos="73.05" arrivalSpeed="11.54" duration="29.00" routeLength="256.07" waitingTime="0.00" waitingCount="0" stopTime="0.00" timeLoss="5.10" rerouteNo="1" devices="tripinfo_carIn28951:1 routing_carIn28951:1" vType="default_016" speedFactor="0.84" vaporized=""/>
    <tripinfo id="carIn5482:1" depart="57617.00" departLane="653473569#5_1" departPos="5.10" departSpeed="0.00" departDelay="3.60" arrival="57642.00" arrivalLane="124812857#0_1" arrivalPos="143.49" arrivalSpeed="14.64" duration="25.00" routeLength="239.18" waitingTime="0.00" waitingCount="0" stopTime="0.00" timeLoss="7.50" rerouteNo="1" devices="tripinfo_carIn5482:1 routing_carIn5482:1" vType="default_016" speedFactor="1.06" vaporized=""/>
    <tripinfo id="carIn36103:1" depart="57620.00" departLane="653473569#5_1" departPos="5.10" departSpeed="0.00" departDelay="4.00" arrival="57645.00" arrivalLane="124812857#0_1" arrivalPos="143.49" arrivalSpeed="14.48" duration="25.00" routeLength="239.18" waitingTime="0.00" waitingCount="0" stopTime="0.00" timeLoss="7.64" rerouteNo="1" devices="tripinfo_carIn36103:1 routing_carIn36103:1" vType="default_016" speedFactor="1.08" vaporized=""/>
    <tripinfo id="carIn102997:1" depart="57623.00" departLane="653473569#5_1" departPos="5.10" departSpeed="0.00" departDelay="4.80" arrival="57647.00" arrivalLane="124812857#0_1" arrivalPos="143.49" arrivalSpeed="16.00" duration="24.00" routeLength="239.18" waitingTime="0.00" waitingCount="0" stopTime="0.00" timeLoss="7.82" rerouteNo="1" devices="tripinfo_carIn102997:1 routing_carIn102997:1" vType="default_016" speedFactor="1.15" vaporized=""/>
    <tripinfo id="carIn26332:1" depart="57621.00" departLane="201963537#1_1" departPos="5.10" departSpeed="0.00" departDelay="0.00" arrival="57647.00" arrivalLane="104012170_1" arrivalPos="109.94" arrivalSpeed="13.81" duration="26.00" routeLength="293.69" waitingTime="0.00" waitingCount="0" stopTime="0.00" timeLoss="4.42" rerouteNo="1" devices="tripinfo_carIn26332:1 routing_carIn26332:1" vType="default_015" speedFactor="1.02" vaporized=""/>
    <tripinfo id="carIn115534:1" depart="57624.00" departLane="201963537#1_1" departPos="5.10" departSpeed="0.00" departDelay="2.60" arrival="57649.00" arrivalLane="104012170_1" arrivalPos="109.94" arrivalSpeed="14.12" duration="25.00" routeLength="293.69" waitingTime="0.00" waitingCount="0" stopTime="0.00" timeLoss="3.92" rerouteNo="1" devices="tripinfo_carIn115534:1 routing_carIn115534:1" vType="default_015" speedFactor="1.05" vaporized=""/>
    <tripinfo id="carIn75554:1" depart="57626.00" departLane="653473569#5_1" departPos="5.10" departSpeed="0.00" departDelay="5.20" arrival="57652.00" arrivalLane="124812857#0_1" arrivalPos="143.49" arrivalSpeed="12.06" duration="26.00" routeLength="239.18" waitingTime="0.00" waitingCount="0" stopTime="0.00" timeLoss="6.69" rerouteNo="1" devices="tripinfo_carIn75554:1 routing_carIn75554:1" vType="default_016" speedFactor="0.95" vaporized=""/>
    <tripinfo id="h15808c1:1" depart="57627.00" departLane="201963537#1_1" departPos="5.10" departSpeed="0.00" departDelay="5.40" arrival="57652.00" arrivalLane="104012170_1" arrivalPos="109.94" arrivalSpeed="13.98" duration="25.00" routeLength="293.69" waitingTime="0.00" waitingCount="0" stopTime="0.00" timeLoss="3.65" rerouteNo="1" devices="tripinfo_h15808c1:1 routing_h15808c1:1" vType="default_016" speedFactor="1.02" vaporized=""/>
    <tripinfo id="carIn119141:1" depart="57631.00" departLane="201963537#1_1" departPos="5.10" departSpeed="0.00" departDelay="7.70" arrival="57656.00" arrivalLane="104012170_1" arrivalPos="109.94" arrivalSpeed="13.82" duration="25.00" routeLength="293.69" waitingTime="0.00" waitingCount="0" stopTime="0.00" timeLoss="4.79" rerouteNo="1" devices="tripinfo_carIn119141:1 routing_carIn119141:1" vType="default_015" speedFactor="1.08" vaporized=""/>
    <tripinfo id="randUni20090:1" depart="57629.00" departLane="653473569#5_1" departPos="5.10" departSpeed="0.00" departDelay="1.00" arrival="57656.00" arrivalLane="124812857#0_1" arrivalPos="143.49" arrivalSpeed="11.38" duration="27.00" routeLength="239.18" waitingTime="0.00" waitingCount="0" stopTime="0.00" timeLoss="6.27" rerouteNo="1" devices="tripinfo_randUni20090:1 routing_randUni20090:1" vType="random_016" speedFactor="0.89" vaporized=""/>
    <tripinfo id="60R.41" depart="57634.00" departLane="104010354_1" departPos="12.10" departSpeed="0.00" departDelay="0.50" arrival="57656.00" arrivalLane="124812857#0_2" arrivalPos="143.49" arrivalSpeed="13.47" duration="22.00" routeLength="204.78" waitingTime="0.00" waitingCount="0" stopTime="0.00" timeLoss="7.00" rerouteNo="0" devices="tripinfo_60R.41 routing_60R.41" vType="bus" speedFactor="1.00" vaporized=""/>
    <tripinfo id="carIn13117:1" depart="57638.00" departLane="104010354_1" departPos="5.10" departSpeed="0.00" departDelay="1.40" arrival="57658.00" arrivalLane="124812857#0_3" arrivalPos="143.49" arrivalSpeed="14.02" duration="20.00" routeLength="211.78" waitingTime="0.00" waitingCount="0" stopTime="0.00" timeLoss="4.60" rerouteNo="0" devices="tripinfo_carIn13117:1 routing_carIn13117:1" vType="default_016" speedFactor="1.04" vaporized=""/>
    <tripinfo id="carIn119185:1" depart="57636.00" departLane="201963537#1_1" departPos="5.10" departSpeed="0.00" departDelay="10.80" arrival="57660.00" arrivalLane="104012170_1" arrivalPos="109.94" arrivalSpeed="14.52" duration="24.00" routeLength="293.69" waitingTime="0.00" waitingCount="0" stopTime="0.00" timeLoss="4.46" rerouteNo="1" devices="tripinfo_carIn119185:1 routing_carIn119185:1" vType="default_015" speedFactor="1.09" vaporized=""/>
    <tripinfo id="carIn37268:1" depart="57636.00" departLane="653473569#5_1" departPos="5.10" departSpeed="0.00" departDelay="0.90" arrival="57660.00" arrivalLane="124812857#0_1" arrivalPos="143.49" arrivalSpeed="13.40" duration="24.00" routeLength="239.18" waitingTime="0.00" waitingCount="0" stopTime="0.00" timeLoss="6.00" rerouteNo="1" devices="tripinfo_carIn37268:1 routing_carIn37268:1" vType="default_016" speedFactor="1.03" vaporized=""/>
    <tripinfo id="carIn20106:1" depart="57641.00" departLane="104010354_1" departPos="5.10" departSpeed="0.00" departDelay="1.50" arrival="57660.00" arrivalLane="124812857#0_2" arrivalPos="143.49" arrivalSpeed="12.98" duration="19.00" routeLength="211.78" waitingTime="0.00" waitingCount="0" stopTime="0.00" timeLoss="3.36" rerouteNo="0" devices="tripinfo_carIn20106:1 routing_carIn20106:1" vType="default_016" speedFactor="1.02" vaporized=""/>
    <tripinfo id="randUni27349:1" depart="57646.00" departLane="104010354_1" departPos="5.10" departSpeed="0.00" departDelay="0.90" arrival="57665.00" arrivalLane="124812857#0_2" arrivalPos="143.49" arrivalSpeed="13.42" duration="19.00" routeLength="211.78" waitingTime="0.00" waitingCount="0" stopTime="0.00" timeLoss="4.06" rerouteNo="0" devices="tripinfo_randUni27349:1 routing_randUni27349:1" vType="random_016" speedFactor="1.06" vaporized=""/>
    <tripinfo id="carIn79970:1" depart="57641.00" departLane="201963537#1_1" departPos="5.10" departSpeed="0.00" departDelay="14.20" arrival="57669.00" arrivalLane="104012170_1" arrivalPos="109.94" arrivalSpeed="11.67" duration="28.00" routeLength="293.69" waitingTime="0.00" waitingCount="0" stopTime="0.00" timeLoss="3.83" rerouteNo="1" devices="tripinfo_carIn79970:1 routing_carIn79970:1" vType="default_016" speedFactor="0.88" vaporized=""/>
    <tripinfo id="h20403c1:5" depart="57649.00" departLane="104010354_1" departPos="5.10" departSpeed="0.00" departDelay="2.40" arrival="57670.00" arrivalLane="124812857#0_2" arrivalPos="143.49" arrivalSpeed="11.53" duration="21.00" routeLength="211.78" waitingTime="0.00" waitingCount="0" stopTime="0.00" timeLoss="3.74" rerouteNo="0" devices="tripinfo_h20403c1:5 routing_h20403c1:5" vType="default_016" speedFactor="0.89" vaporized=""/>
    <tripinfo id="carIn46350:1" depart="57630.00" departLane="201963537#1_1" departPos="5.10" departSpeed="0.00" departDelay="6.80" arrival="57672.00" arrivalLane="-653473569#5_1" arrivalPos="73.05" arrivalSpeed="11.58" duration="42.00" routeLength="256.07" waitingTime="12.00" waitingCount="1" stopTime="0.00" timeLoss="19.46" rerouteNo="1" devices="tripinfo_carIn46350:1 routing_carIn46350:1" vType="default_016" speedFactor="0.86" vaporized=""/>
    <tripinfo id="carIn73466:1" depart="57652.00" departLane="104010354_1" departPos="5.10" departSpeed="0.00" departDelay="3.70" arrival="57672.00" arrivalLane="124812857#0_2" arrivalPos="143.49" arrivalSpeed="12.35" duration="20.00" routeLength="211.78" waitingTime="0.00" waitingCount="0" stopTime="0.00" timeLoss="3.04" rerouteNo="0" devices="tripinfo_carIn73466:1 routing_carIn73466:1" vType="default_016" speedFactor="0.91" vaporized=""/>
    <tripinfo id="carIn27195:1" depart="57646.00" departLane="201963537#1_1" departPos="5.10" departSpeed="0.00" departDelay="17.90" arrival="57673.00" arrivalLane="104012170_1" arrivalPos="109.94" arrivalSpeed="13.10" duration="27.00" routeLength="293.69" waitingTime="0.00" waitingCount="0" stopTime="0.00" timeLoss="4.45" rerouteNo="1" devices="tripinfo_carIn27195:1 routing_carIn27195:1" vType="default_016" speedFactor="0.97" vaporized=""/>
    <tripinfo id="carIn75667:1" depart="57634.00" departLane="201963537#1_1" departPos="5.10" departSpeed="0.00" departDelay="9.40" arrival="57674.00" arrivalLane="-653473569#5_1" arrivalPos="73.05" arrivalSpeed="14.66" duration="40.00" routeLength="256.07" waitingTime="10.00" waitingCount="1" stopTime="0.00" timeLoss="21.30" rerouteNo="1" devices="tripinfo_carIn75667:1 routing_carIn75667:1" vType="default_016" speedFactor="1.06" vaporized=""/>
    <tripinfo id="carIn76112:1" depart="57639.00" departLane="201963537#1_1" departPos="5.10" departSpeed="0.00" departDelay="13.00" arrival="57685.00" arrivalLane="-653473569#5_1" arrivalPos="73.05" arrivalSpeed="12.26" duration="46.00" routeLength="256.07" waitingTime="14.00" waitingCount="2" stopTime="0.00" timeLoss="25.30" rerouteNo="1" devices="tripinfo_carIn76112:1 routing_carIn76112:1" vType="default_016" speedFactor="0.93" vaporized=""/>
    <tripinfo id="carIn27521:1" depart="57644.00" departLane="201963537#1_1" departPos="5.10" departSpeed="0.00" departDelay="16.50" arrival="57687.00" arrivalLane="-653473569#5_1" arrivalPos="73.05" arrivalSpeed="12.02" duration="43.00" routeLength="256.07" waitingTime="10.00" waitingCount="2" stopTime="0.00" timeLoss="21.98" rerouteNo="1" devices="tripinfo_carIn27521:1 routing_carIn27521:1" vType="default_015" speedFactor="0.91" vaporized=""/>
    <tripinfo id="carIn96537:1" depart="57652.00" departLane="201963537#1_1" departPos="5.10" departSpeed="0.00" departDelay="21.30" arrival="57687.00" arrivalLane="104012170_1" arrivalPos="109.94" arrivalSpeed="13.95" duration="35.00" routeLength="293.69" waitingTime="5.00" waitingCount="1" stopTime="0.00" timeLoss="13.38" rerouteNo="1" devices="tripinfo_carIn96537:1 routing_carIn96537:1" vType="default_016" speedFactor="1.01" vaporized=""/>
    <tripinfo id="carIn26410:1" depart="57657.00" departLane="201963537#1_1" departPos="5.10" departSpeed="0.00" departDelay="24.70" arrival="57687.00" arrivalLane="104012170_2" arrivalPos="109.94" arrivalSpeed="12.92" duration="30.00" routeLength="293.69" waitingTime="0.00" waitingCount="0" stopTime="0.00" timeLoss="9.08" rerouteNo="1" devices="tripinfo_carIn26410:1 routing_carIn26410:1" vType="default_016" speedFactor="1.01" vaporized=""/>
    <tripinfo id="carIn36018:1" depart="57667.00" departLane="104010354_1" departPos="5.10" departSpeed="0.00" departDelay="0.40" arrival="57691.00" arrivalLane="-653473569#5_1" arrivalPos="73.05" arrivalSpeed="12.07" duration="24.00" routeLength="153.51" waitingTime="2.00" waitingCount="1" stopTime="0.00" timeLoss="10.26" rerouteNo="1" devices="tripinfo_carIn36018:1 routing_carIn36018:1" vType="default_016" speedFactor="0.89" vaporized=""/>
    <tripinfo id="carIn51024:1" depart="57661.00" departLane="201963537#1_1" departPos="5.10" departSpeed="0.00" departDelay="27.00" arrival="57692.00" arrivalLane="104012170_1" arrivalPos="109.94" arrivalSpeed="9.74" duration="31.00" routeLength="293.69" waitingTime="0.00" waitingCount="0" stopTime="0.00" timeLoss="3.67" rerouteNo="1" devices="tripinfo_carIn51024:1 routing_carIn51024:1" vType="default_016" speedFactor="0.78" vaporized=""/>
    <tripinfo id="carIn129760:1" depart="57661.00" departLane="653473569#5_1" departPos="5.10" departSpeed="0.00" departDelay="0.80" arrival="57695.00" arrivalLane="124812857#0_1" arrivalPos="143.49" arrivalSpeed="10.52" duration="34.00" routeLength="239.18" waitingTime="4.00" waitingCount="1" stopTime="0.00" timeLoss="12.24" rerouteNo="1" devices="tripinfo_carIn129760:1 routing_carIn129760:1" vType="default_016" speedFactor="0.85" vaporized=""/>
    <tripinfo id="carIn129626:1" depart="57664.00" departLane="653473569#5_1" departPos="5.10" departSpeed="0.00" departDelay="1.60" arrival="57696.00" arrivalLane="124812857#0_1" arrivalPos="143.49" arrivalSpeed="14.49" duration="32.00" routeLength="239.18" waitingTime="3.00" waitingCount="1" stopTime="0.00" timeLoss="16.61" rerouteNo="1" devices="tripinfo_carIn129626:1 routing_carIn129626:1" vType="default_016" speedFactor="1.17" vaporized=""/>
    <tripinfo id="h20539c1:3" depart="57667.00" departLane="653473569#5_1" departPos="5.10" departSpeed="0.00" departDelay="2.20" arrival="57701.00" arrivalLane="124812857#0_1" arrivalPos="143.49" arrivalSpeed="11.93" duration="34.00" routeLength="239.18" waitingTime="1.00" waitingCount="1" stopTime="0.00" timeLoss="13.91" rerouteNo="1" devices="tripinfo_h20539c1:3 routing_h20539c1:3" vType="default_016" speedFactor="0.93" vaporized=""/>
    <tripinfo id="carIn130142:1" depart="57649.00" departLane="201963537#1_1" departPos="5.10" departSpeed="0.00" departDelay="19.90" arrival="57704.00" arrivalLane="-653473569#5_1" arrivalPos="73.05" arrivalSpeed="14.41" duration="55.00" routeLength="256.07" waitingTime="21.00" waitingCount="2" stopTime="0.00" timeLoss="36.46" rerouteNo="1" devices="tripinfo_carIn130142:1 routing_carIn130142:1" vType="default_015" speedFactor="1.06" vaporized=""/>
    <tripinfo id="carIn128705:1" depart="57665.00" departLane="201963537#1_1" departPos="5.10" departSpeed="0.00" departDelay="29.30" arrival="57707.00" arrivalLane="104012170_2" arrivalPos="109.94" arrivalSpeed="13.41" duration="42.00" routeLength="293.69" waitingTime="14.00" waitingCount="1" stopTime="0.00" timeLoss="20.21" rerouteNo="1" devices="tripinfo_carIn128705:1 routing_carIn128705:1" vType="default_016" speedFactor="0.99" vaporized=""/>
    <tripinfo id="h21989c1:1" depart="57669.00" departLane="201963537#1_1" departPos="5.10" departSpeed="0.00" departDelay="31.70" arrival="57707.00" arrivalLane="104012170_1" arrivalPos="109.94" arrivalSpeed="12.94" duration="38.00" routeLength="293.69" waitingTime="8.00" waitingCount="1" stopTime="0.00" timeLoss="16.50" rerouteNo="1" devices="tripinfo_h21989c1:1 routing_h21989c1:1" vType="default_016" speedFactor="0.98" vaporized=""/>
    <tripinfo id="randUni34730:1" depart="57651.00" departLane="201963537#1_1" departPos="5.10" departSpeed="0.00" departDelay="20.40" arrival="57708.00" arrivalLane="-653473569#5_1" arrivalPos="73.05" arrivalSpeed="11.99" duration="57.00" routeLength="256.07" waitingTime="18.00" waitingCount="2" stopTime="0.00" timeLoss="35.96" rerouteNo="1" devices="tripinfo_randUni34730:1 routing_randUni34730:1" vType="random_016" speedFactor="0.94" vaporized=""/>
    <tripinfo id="carIn102740:1" depart="57676.00" departLane="104010354_1" departPos="5.10" departSpeed="0.00" departDelay="0.50" arrival="57717.00" arrivalLane="124812857#0_2" arrivalPos="143.49" arrivalSpeed="14.71" duration="41.00" routeLength="211.78" waitingTime="18.00" waitingCount="1" stopTime="0.00" timeLoss="27.13" rerouteNo="0" devices="tripinfo_carIn102740:1 routing_carIn102740:1" vType="default_016" speedFactor="1.15" vaporized=""/>
    <tripinfo id="h21130c2:1" depart="57695.00" departLane="201963537#1_1" departPos="5.10" departSpeed="0.00" departDelay="31.60" arrival="57718.00" arrivalLane="104012170_1" arrivalPos="109.94" arrivalSpeed="15.14" duration="23.00" routeLength="293.69" waitingTime="0.00" waitingCount="0" stopTime="0.00" timeLoss="4.57" rerouteNo="1" devices="tripinfo_h21130c2:1 routing_h21130c2:1" vType="default_016" speedFactor="1.18" vaporized=""/>
    <tripinfo id="h2215c1:1" depart="57670.00" departLane="104010354_1" departPos="5.10" departSpeed="0.00" departDelay="0.10" arrival="57718.00" arrivalLane="124812857#0_2" arrivalPos="143.49" arrivalSpeed="11.69" duration="48.00" routeLength="211.78" waitingTime="23.00" waitingCount="1" stopTime="0.00" timeLoss="31.26" rerouteNo="0" devices="tripinfo_h2215c1:1 routing_h2215c1:1" vType="default_016" speedFactor="0.93" vaporized=""/>
    <tripinfo id="carIn91254:1" depart="57696.00" departLane="653473569#5_1" departPos="5.10" departSpeed="0.00" departDelay="0.10" arrival="57718.00" arrivalLane="124812857#0_1" arrivalPos="143.49" arrivalSpeed="14.08" duration="22.00" routeLength="239.18" waitingTime="0.00" waitingCount="0" stopTime="0.00" timeLoss="5.07" rerouteNo="1" devices="tripinfo_carIn91254:1 routing_carIn91254:1" vType="default_016" speedFactor="1.10" vaporized=""/>
    <tripinfo id="carIn35345:1" depart="57679.00" departLane="104010354_1" departPos="5.10" departSpeed="0.00" departDelay="1.10" arrival="57720.00" arrivalLane="124812857#0_2" arrivalPos="143.49" arrivalSpeed="13.10" duration="41.00" routeLength="211.78" waitingTime="14.00" waitingCount="1" stopTime="0.00" timeLoss="25.00" rerouteNo="0" devices="tripinfo_carIn35345:1 routing_carIn35345:1" vType="default_016" speedFactor="0.99" vaporized=""/>
    <tripinfo id="h3139c1:3" depart="57684.00" departLane="104010354_1" departPos="5.10" departSpeed="0.00" departDelay="0.70" arrival="57720.00" arrivalLane="124812857#0_3" arrivalPos="143.49" arrivalSpeed="13.44" duration="36.00" routeLength="211.78" waitingTime="11.00" waitingCount="1" stopTime="0.00" timeLoss="19.84" rerouteNo="0" devices="tripinfo_h3139c1:3 routing_h3139c1:3" vType="default_016" speedFactor="0.98" vaporized=""/>
    <tripinfo id="h14257c2:1" depart="57655.00" departLane="201963537#1_1" departPos="5.10" departSpeed="0.00" departDelay="22.80" arrival="57721.00" arrivalLane="-653473569#5_1" arrivalPos="73.05" arrivalSpeed="14.96" duration="66.00" routeLength="256.07" waitingTime="24.00" waitingCount="4" stopTime="0.00" timeLoss="48.05" rerouteNo="1" devices="tripinfo_h14257c2:1 routing_h14257c2:1" vType="default_016" speedFactor="1.08" vaporized=""/>
    <tripinfo id="carIn78692:1" depart="57702.00" departLane="104010354_1" departPos="5.10" departSpeed="0.00" departDelay="0.00" arrival="57722.00" arrivalLane="124812857#0_2" arrivalPos="143.49" arrivalSpeed="14.30" duration="20.00" routeLength="211.78" waitingTime="0.00" waitingCount="0" stopTime="0.00" timeLoss="4.50" rerouteNo="0" devices="tripinfo_carIn78692:1 routing_carIn78692:1" vType="default_016" speedFactor="1.05" vaporized=""/>
    <tripinfo id="carIn107084:1" depart="57660.00" departLane="201963537#1_1" departPos="5.10" departSpeed="0.00" departDelay="26.20" arrival="57723.00" arrivalLane="-653473569#5_1" arrivalPos="73.05" arrivalSpeed="13.18" duration="63.00" routeLength="256.07" waitingTime="16.00" waitingCount="4" stopTime="0.00" timeLoss="43.05" rerouteNo="1" devices="tripinfo_carIn107084:1 routing_carIn107084:1" vType="default_016" speedFactor="0.97" vaporized=""/>
    <tripinfo id="carIn26407:1" depart="57687.00" departLane="104010354_1" departPos="5.10" departSpeed="0.00" departDelay="1.00" arrival="57723.00" arrivalLane="124812857#0_3" arrivalPos="143.49" arrivalSpeed="11.87" duration="36.00" routeLength="211.78" waitingTime="9.00" waitingCount="1" stopTime="0.00" timeLoss="18.20" rerouteNo="0" devices="tripinfo_carIn26407:1 routing_carIn26407:1" vType="default_016" speedFactor="0.87" vaporized=""/>
    <tripinfo id="carIn767:1" depart="57688.00" departLane="201963537#1_1" departPos="5.10" departSpeed="0.00" departDelay="39.80" arrival="57725.00" arrivalLane="-653473569#5_1" arrivalPos="73.05" arrivalSpeed="15.14" duration="37.00" routeLength="256.07" waitingTime="4.00" waitingCount="2" stopTime="0.00" timeLoss="18.93" rerouteNo="1" devices="tripinfo_carIn767:1 routing_carIn767:1" vType="default_016" speedFactor="1.10" vaporized=""/>
    <tripinfo id="carIn77943:1" depart="57664.00" departLane="201963537#1_1" departPos="5.10" departSpeed="0.00" departDelay="28.60" arrival="57727.00" arrivalLane="-653473569#5_1" arrivalPos="73.05" arrivalSpeed="13.24" duration="63.00" routeLength="256.07" waitingTime="13.00" waitingCount="6" stopTime="0.00" timeLoss="43.78" rerouteNo="1" devices="tripinfo_carIn77943:1 routing_carIn77943:1" vType="default_016" speedFactor="1.00" vaporized=""/>
    <tripinfo id="60.39" depart="57699.00" departLane="201963537#1_1" departPos="12.10" departSpeed="0.00" departDelay="30.50" arrival="57728.00" arrivalLane="104012170_1" arrivalPos="109.94" arrivalSpeed="13.77" duration="29.00" routeLength="286.69" waitingTime="0.00" waitingCount="0" stopTime="0.00" timeLoss="8.10" rerouteNo="1" devices="tripinfo_60.39 routing_60.39" vType="bus" speedFactor="1.00" vaporized=""/>
    <tripinfo id="carIn70484:1" depart="57724.00" departLane="653473569#5_1" departPos="5.10" departSpeed="0.00" departDelay="0.60" arrival="57746.00" arrivalLane="104012170_2" arrivalPos="109.94" arrivalSpeed="15.64" duration="22.00" routeLength="250.58" waitingTime="0.00" waitingCount="0" stopTime="0.00" timeLoss="4.85" rerouteNo="1" devices="tripinfo_carIn70484:1 routing_carIn70484:1" vType="default_016" speedFactor="1.13" vaporized=""/>
    <tripinfo id="carIn106797:1" depart="57726.00" departLane="653473569#5_1" departPos="5.10" departSpeed="0.00" departDelay="1.00" arrival="57752.00" arrivalLane="124812857#0_1" arrivalPos="143.49" arrivalSpeed="11.96" duration="26.00" routeLength="239.18" waitingTime="0.00" waitingCount="0" stopTime="0.00" timeLoss="5.22" rerouteNo="1" devices="tripinfo_carIn106797:1 routing_carIn106797:1" vType="default_016" speedFactor="0.90" vaporized=""/>
    <tripinfo id="carIn26708:1" depart="57729.00" departLane="653473569#5_1" departPos="5.10" departSpeed="0.00" departDelay="2.40" arrival="57755.00" arrivalLane="124812857#0_1" arrivalPos="143.49" arrivalSpeed="12.72" duration="26.00" routeLength="239.18" waitingTime="0.00" waitingCount="0" stopTime="0.00" timeLoss="6.52" rerouteNo="1" devices="tripinfo_carIn26708:1 routing_carIn26708:1" vType="default_016" speedFactor="0.94" vaporized=""/>
    <tripinfo id="carIn100220:1" depart="57704.00" departLane="201963537#1_1" departPos="5.10" departSpeed="0.00" departDelay="28.70" arrival="57757.00" arrivalLane="104012170_1" arrivalPos="109.94" arrivalSpeed="12.69" duration="53.00" routeLength="293.69" waitingTime="18.00" waitingCount="1" stopTime="0.00" timeLoss="31.13" rerouteNo="1" devices="tripinfo_carIn100220:1 routing_carIn100220:1" vType="default_016" speedFactor="0.98" vaporized=""/>
    <tripinfo id="carIn34550:1" depart="57734.00" departLane="653473569#5_1" departPos="5.10" departSpeed="0.00" departDelay="3.60" arrival="57758.00" arrivalLane="124812857#0_1" arrivalPos="143.49" arrivalSpeed="12.68" duration="24.00" routeLength="239.18" waitingTime="0.00" waitingCount="0" stopTime="0.00" timeLoss="5.26" rerouteNo="1" devices="tripinfo_carIn34550:1 routing_carIn34550:1" vType="default_016" speedFactor="1.00" vaporized=""/>
    <tripinfo id="carIn64490:1" depart="57689.00" departLane="201963537#1_1" departPos="5.10" departSpeed="0.00" departDelay="39.70" arrival="57759.00" arrivalLane="-653473569#5_1" arrivalPos="73.05" arrivalSpeed="11.76" duration="70.00" routeLength="256.07" waitingTime="32.00" waitingCount="4" stopTime="0.00" timeLoss="49.35" rerouteNo="1" devices="tripinfo_carIn64490:1 routing_carIn64490:1" vType="default_016" speedFactor="0.93" vaporized=""/>
    <tripinfo id="carIn96193:1" depart="57714.00" departLane="104010354_1" departPos="5.10" departSpeed="0.00" departDelay="0.90" arrival="57759.00" arrivalLane="124812857#0_2" arrivalPos="143.49" arrivalSpeed="10.95" duration="45.00" routeLength="211.78" waitingTime="18.00" waitingCount="1" stopTime="0.00" timeLoss="26.88" rerouteNo="0" devices="tripinfo_carIn96193:1 routing_carIn96193:1" vType="default_016" speedFactor="0.85" vaporized=""/>
    <tripinfo id="carIn98489:1" depart="57717.00" departLane="104010354_1" departPos="5.10" departSpeed="0.00" departDelay="0.60" arrival="57759.00" arrivalLane="124812857#0_3" arrivalPos="143.49" arrivalSpeed="11.63" duration="42.00" routeLength="211.78" waitingTime="17.00" waitingCount="1" stopTime="0.00" timeLoss="24.42" rerouteNo="0" devices="tripinfo_carIn98489:1 routing_carIn98489:1" vType="default_016" speedFactor="0.91" vaporized=""/>
    <tripinfo id="carIn81046:1" depart="57668.00" departLane="201963537#1_1" departPos="5.10" departSpeed="0.00" departDelay="31.00" arrival="57761.00" arrivalLane="-653473569#5_1" arrivalPos="73.05" arrivalSpeed="16.81" duration="93.00" routeLength="256.07" waitingTime="32.00" waitingCount="3" stopTime="0.00" timeLoss="76.90" rerouteNo="1" devices="tripinfo_carIn81046:1 routing_carIn81046:1" vType="default_016" speedFactor="1.23" vaporized=""/>
    <tripinfo id="h4745c1:1" depart="57726.00" departLane="104010354_1" departPos="5.10" departSpeed="0.00" departDelay="0.40" arrival="57761.00" arrivalLane="124812857#0_2" arrivalPos="143.49" arrivalSpeed="13.23" duration="35.00" routeLength="211.78" waitingTime="8.00" waitingCount="1" stopTime="0.00" timeLoss="18.67" rerouteNo="0" devices="tripinfo_h4745c1:1 routing_h4745c1:1" vType="default_016" speedFactor="0.97" vaporized=""/>
    <tripinfo id="carIn124270:1" depart="57736.00" departLane="104010354_1" departPos="5.10" departSpeed="0.00" departDelay="0.00" arrival="57761.00" arrivalLane="124812857#0_3" arrivalPos="143.49" arrivalSpeed="12.22" duration="25.00" routeLength="211.78" waitingTime="0.00" waitingCount="0" stopTime="0.00" timeLoss="7.06" rerouteNo="0" devices="tripinfo_carIn124270:1 routing_carIn124270:1" vType="default_016" speedFactor="0.88" vaporized=""/>