<?xml version="1.0" encoding="UTF-8"?>

<!-- generated on 2024-09-17 13:11:46 by Eclipse SUMO GUI Version 1.20.0
<configuration xmlns:xsi="http://www.w3.org/2001/XMLSchema-instance" xsi:noNamespaceSchemaLocation="http://sumo.dlr.de/xsd/sumoConfiguration.xsd">

    <input>
        <net-file value="/Users/duyvuquoc/PycharmProjects/RESCO/resco_benchmark/environments/ingolstadt1/ingolstadt1.net.xml"/>
        <route-files value="/Users/duyvuquoc/PycharmProjects/RESCO/resco_benchmark/environments/ingolstadt1/ingolstadt1.rou.xml"/>
    </input>

    <output>
        <tripinfo-output value="/Users/duyvuquoc/PycharmProjects/RESCO/results/IDQN-tr0-ingolstadt1-0-drq_norm-wait_norm/tripinfo_3.xml"/>
        <tripinfo-output.write-unfinished value="true"/>
    </output>

    <time>
        <begin value="57600"/>
        <end value="61200"/>
    </time>

    <processing>
        <time-to-teleport value="-1"/>
    </processing>

    <report>
        <no-warnings value="True"/>
        <no-step-log value="True"/>
    </report>

    <traci_server>
        <remote-port value="57360"/>
    </traci_server>

    <random_number>
        <random value="true"/>
    </random_number>

    <gui_only>
        <start value="true"/>
    </gui_only>

</configuration>
-->

<tripinfos xmlns:xsi="http://www.w3.org/2001/XMLSchema-instance" xsi:noNamespaceSchemaLocation="http://sumo.dlr.de/xsd/tripinfo_file.xsd">
    <tripinfo id="carIn105842:1" depart="57601.00" departLane="653473569#5_1" departPos="5.10" departSpeed="0.00" departDelay="0.80" arrival="57624.00" arrivalLane="124812857#0_1" arrivalPos="143.49" arrivalSpeed="12.43" duration="23.00" routeLength="239.18" waitingTime="0.00" waitingCount="0" stopTime="0.00" timeLoss="4.54" rerouteNo="1" devices="tripinfo_carIn105842:1 routing_carIn105842:1" vType="default_016" speedFactor="0.98" vaporized=""/>
    <tripinfo id="h8750c1:1" depart="57609.00" departLane="104010354_1" departPos="5.10" departSpeed="0.00" departDelay="0.50" arrival="57629.00" arrivalLane="124812857#0_2" arrivalPos="143.49" arrivalSpeed="11.90" duration="20.00" routeLength="211.78" waitingTime="0.00" waitingCount="0" stopTime="0.00" timeLoss="3.10" rerouteNo="0" devices="tripinfo_h8750c1:1 routing_h8750c1:1" vType="default_016" speedFactor="0.95" vaporized=""/>
    <tripinfo id="carIn28488:1" depart="57611.00" departLane="653473569#5_1" departPos="5.10" departSpeed="0.00" departDelay="0.80" arrival="57638.00" arrivalLane="124812857#0_1" arrivalPos="143.49" arrivalSpeed="11.43" duration="27.00" routeLength="239.18" waitingTime="0.00" waitingCount="0" stopTime="0.00" timeLoss="6.28" rerouteNo="1" devices="tripinfo_carIn28488:1 routing_carIn28488:1" vType="default_016" speedFactor="0.89" vaporized=""/>
    <tripinfo id="carIn106322:1" depart="57614.00" departLane="653473569#5_1" departPos="5.10" departSpeed="0.00" departDelay="2.20" arrival="57641.00" arrivalLane="124812857#0_1" arrivalPos="143.49" arrivalSpeed="12.55" duration="27.00" routeLength="239.18" waitingTime="0.00" waitingCount="0" stopTime="0.00" timeLoss="6.27" rerouteNo="1" devices="tripinfo_carIn106322:1 routing_carIn106322:1" vType="default_016" speedFactor="0.90" vaporized=""/>
    <tripinfo id="carIn5482:1" depart="57617.00" departLane="653473569#5_1" departPos="5.10" departSpeed="0.00" departDelay="3.60" arrival="57644.00" arrivalLane="124812857#0_1" arrivalPos="143.49" arrivalSpeed="12.03" duration="27.00" routeLength="239.18" waitingTime="0.00" waitingCount="0" stopTime="0.00" timeLoss="6.16" rerouteNo="1" devices="tripinfo_carIn5482:1 routing_carIn5482:1" vType="default_016" speedFactor="0.88" vaporized=""/>
    <tripinfo id="carIn21562:1" depart="57611.00" departLane="201963537#1_1" departPos="5.10" departSpeed="0.00" departDelay="0.20" arrival="57645.00" arrivalLane="-653473569#5_1" arrivalPos="73.05" arrivalSpeed="12.37" duration="34.00" routeLength="256.07" waitingTime="5.00" waitingCount="1" stopTime="0.00" timeLoss="12.58" rerouteNo="1" devices="tripinfo_carIn21562:1 routing_carIn21562:1" vType="default_016" speedFactor="0.91" vaporized=""/>
    <tripinfo id="carIn26332:1" depart="57621.00" departLane="201963537#1_1" departPos="5.10" departSpeed="0.00" departDelay="0.00" arrival="57645.00" arrivalLane="104012170_1" arrivalPos="109.94" arrivalSpeed="13.86" duration="24.00" routeLength="293.69" waitingTime="0.00" waitingCount="0" stopTime="0.00" timeLoss="3.71" rerouteNo="1" devices="tripinfo_carIn26332:1 routing_carIn26332:1" vType="default_015" speedFactor="1.08" vaporized=""/>
    <tripinfo id="carIn36103:1" depart="57620.00" departLane="653473569#5_1" departPos="5.10" departSpeed="0.00" departDelay="4.00" arrival="57646.00" arrivalLane="124812857#0_1" arrivalPos="143.49" arrivalSpeed="13.00" duration="26.00" routeLength="239.18" waitingTime="0.00" waitingCount="0" stopTime="0.00" timeLoss="7.10" rerouteNo="1" devices="tripinfo_carIn36103:1 routing_carIn36103:1" vType="default_016" speedFactor="1.01" vaporized=""/>
    <tripinfo id="carIn28951:1" depart="57613.00" departLane="201963537#1_1" departPos="5.10" departSpeed="0.00" departDelay="0.30" arrival="57647.00" arrivalLane="-653473569#5_1" arrivalPos="73.05" arrivalSpeed="11.31" duration="34.00" routeLength="256.07" waitingTime="3.00" waitingCount="1" stopTime="0.00" timeLoss="12.92" rerouteNo="1" devices="tripinfo_carIn28951:1 routing_carIn28951:1" vType="default_016" speedFactor="0.90" vaporized=""/>
    <tripinfo id="carIn102997:1" depart="57623.00" departLane="653473569#5_1" departPos="5.10" departSpeed="0.00" departDelay="4.80" arrival="57650.00" arrivalLane="124812857#0_1" arrivalPos="143.49" arrivalSpeed="11.43" duration="27.00" routeLength="239.18" waitingTime="0.00" waitingCount="0" stopTime="0.00" timeLoss="6.38" rerouteNo="1" devices="tripinfo_carIn102997:1 routing_carIn102997:1" vType="default_016" speedFactor="0.88" vaporized=""/>
    <tripinfo id="carIn115534:1" depart="57624.00" departLane="201963537#1_1" departPos="5.10" departSpeed="0.00" departDelay="2.60" arrival="57650.00" arrivalLane="104012170_1" arrivalPos="109.94" arrivalSpeed="13.03" duration="26.00" routeLength="293.69" waitingTime="0.00" waitingCount="0" stopTime="0.00" timeLoss="4.46" rerouteNo="1" devices="tripinfo_carIn115534:1 routing_carIn115534:1" vType="default_015" speedFactor="1.02" vaporized=""/>
    <tripinfo id="carIn75554:1" depart="57626.00" departLane="653473569#5_1" departPos="5.10" departSpeed="0.00" departDelay="5.20" arrival="57653.00" arrivalLane="124812857#0_1" arrivalPos="143.49" arrivalSpeed="12.11" duration="27.00" routeLength="239.18" waitingTime="0.00" waitingCount="0" stopTime="0.00" timeLoss="6.91" rerouteNo="1" devices="tripinfo_carIn75554:1 routing_carIn75554:1" vType="default_016" speedFactor="0.93" vaporized=""/>
    <tripinfo id="h15808c1:1" depart="57627.00" departLane="201963537#1_1" departPos="5.10" departSpeed="0.00" departDelay="5.40" arrival="57654.00" arrivalLane="104012170_1" arrivalPos="109.94" arrivalSpeed="12.83" duration="27.00" routeLength="293.69" waitingTime="0.00" waitingCount="0" stopTime="0.00" timeLoss="4.03" rerouteNo="1" devices="tripinfo_h15808c1:1 routing_h15808c1:1" vType="default_016" speedFactor="0.95" vaporized=""/>
    <tripinfo id="randUni20090:1" depart="57629.00" departLane="653473569#5_1" departPos="5.10" departSpeed="0.00" departDelay="1.00" arrival="57654.00" arrivalLane="124812857#0_1" arrivalPos="143.49" arrivalSpeed="14.36" duration="25.00" routeLength="239.18" waitingTime="0.00" waitingCount="0" stopTime="0.00" timeLoss="8.35" rerouteNo="1" devices="tripinfo_randUni20090:1 routing_randUni20090:1" vType="random_016" speedFactor="1.07" vaporized=""/>
    <tripinfo id="carIn13117:1" depart="57638.00" departLane="104010354_1" departPos="5.10" departSpeed="0.00" departDelay="1.40" arrival="57656.00" arrivalLane="124812857#0_3" arrivalPos="143.49" arrivalSpeed="14.79" duration="18.00" routeLength="211.78" waitingTime="0.00" waitingCount="0" stopTime="0.00" timeLoss="3.81" rerouteNo="0" devices="tripinfo_carIn13117:1 routing_carIn13117:1" vType="default_016" speedFactor="1.08" vaporized=""/>
    <tripinfo id="60R.41" depart="57634.00" departLane="104010354_1" departPos="12.10" departSpeed="0.00" departDelay="0.50" arrival="57657.00" arrivalLane="124812857#0_2" arrivalPos="143.49" arrivalSpeed="13.45" duration="23.00" routeLength="204.78" waitingTime="0.00" waitingCount="0" stopTime="0.00" timeLoss="8.23" rerouteNo="0" devices="tripinfo_60R.41 routing_60R.41" vType="bus" speedFactor="1.00" vaporized=""/>
    <tripinfo id="carIn119141:1" depart="57632.00" departLane="201963537#1_1" departPos="5.10" departSpeed="0.00" departDelay="8.70" arrival="57658.00" arrivalLane="104012170_1" arrivalPos="109.94" arrivalSpeed="13.24" duration="26.00" routeLength="293.69" waitingTime="0.00" waitingCount="0" stopTime="0.00" timeLoss="3.68" rerouteNo="1" devices="tripinfo_carIn119141:1 routing_carIn119141:1" vType="default_015" speedFactor="0.97" vaporized=""/>
    <tripinfo id="carIn37268:1" depart="57636.00" departLane="653473569#5_1" departPos="5.10" departSpeed="0.00" departDelay="0.90" arrival="57659.00" arrivalLane="124812857#0_1" arrivalPos="143.49" arrivalSpeed="15.12" duration="23.00" routeLength="239.18" waitingTime="0.00" waitingCount="0" stopTime="0.00" timeLoss="6.91" rerouteNo="1" devices="tripinfo_carIn37268:1 routing_carIn37268:1" vType="default_016" speedFactor="1.13" vaporized=""/>
    <tripinfo id="carIn46350:1" depart="57630.00" departLane="201963537#1_1" departPos="5.10" departSpeed="0.00" departDelay="6.80" arrival="57660.00" arrivalLane="-653473569#5_1" arrivalPos="73.05" arrivalSpeed="13.96" duration="30.00" routeLength="256.07" waitingTime="1.00" waitingCount="1" stopTime="0.00" timeLoss="10.71" rerouteNo="1" devices="tripinfo_carIn46350:1 routing_carIn46350:1" vType="default_016" speedFactor="1.02" vaporized=""/>
    <tripinfo id="carIn20106:1" depart="57641.00" departLane="104010354_1" departPos="5.10" departSpeed="0.00" departDelay="1.50" arrival="57660.00" arrivalLane="124812857#0_2" arrivalPos="143.49" arrivalSpeed="14.06" duration="19.00" routeLength="211.78" waitingTime="0.00" waitingCount="0" stopTime="0.00" timeLoss="3.64" rerouteNo="0" devices="tripinfo_carIn20106:1 routing_carIn20106:1" vType="default_016" speedFactor="1.02" vaporized=""/>
    <tripinfo id="carIn119185:1" depart="57637.00" departLane="201963537#1_1" departPos="5.10" departSpeed="0.00" departDelay="11.80" arrival="57661.00" arrivalLane="104012170_1" arrivalPos="109.94" arrivalSpeed="13.56" duration="24.00" routeLength="293.69" waitingTime="0.00" waitingCount="0" stopTime="0.00" timeLoss="3.70" rerouteNo="1" devices="tripinfo_carIn119185:1 routing_carIn119185:1" vType="default_015" speedFactor="1.07" vaporized=""/>
    <tripinfo id="carIn75667:1" depart="57635.00" departLane="201963537#1_1" departPos="5.10" departSpeed="0.00" departDelay="10.40" arrival="57663.00" arrivalLane="-653473569#5_1" arrivalPos="73.05" arrivalSpeed="13.48" duration="28.00" routeLength="256.07" waitingTime="0.00" waitingCount="0" stopTime="0.00" timeLoss="7.89" rerouteNo="1" devices="tripinfo_carIn75667:1 routing_carIn75667:1" vType="default_016" speedFactor="0.99" vaporized=""/>
    <tripinfo id="carIn27195:1" depart="57646.00" departLane="201963537#1_1" departPos="5.10" departSpeed="0.00" departDelay="17.90" arrival="57676.00" arrivalLane="104012170_2" arrivalPos="109.94" arrivalSpeed="13.30" duration="30.00" routeLength="293.69" waitingTime="1.00" waitingCount="1" stopTime="0.00" timeLoss="9.25" rerouteNo="1" devices="tripinfo_carIn27195:1 routing_carIn27195:1" vType="default_016" speedFactor="1.02" vaporized=""/>
    <tripinfo id="carIn79970:1" depart="57641.00" departLane="201963537#1_1" departPos="5.10" departSpeed="0.00" departDelay="14.20" arrival="57677.00" arrivalLane="104012170_1" arrivalPos="109.94" arrivalSpeed="14.52" duration="36.00" routeLength="293.69" waitingTime="4.00" waitingCount="1" stopTime="0.00" timeLoss="15.04" rerouteNo="1" devices="tripinfo_carIn79970:1 routing_carIn79970:1" vType="default_016" speedFactor="1.05" vaporized=""/>
    <tripinfo id="randUni27349:1" depart="57646.00" departLane="104010354_1" departPos="5.10" departSpeed="0.00" departDelay="0.90" arrival="57678.00" arrivalLane="124812857#0_2" arrivalPos="143.49" arrivalSpeed="12.29" duration="32.00" routeLength="211.78" waitingTime="7.00" waitingCount="1" stopTime="0.00" timeLoss="15.14" rerouteNo="0" devices="tripinfo_randUni27349:1 routing_randUni27349:1" vType="random_016" speedFactor="0.95" vaporized=""/>
    <tripinfo id="h20403c1:5" depart="57649.00" departLane="104010354_1" departPos="5.10" departSpeed="0.00" departDelay="2.40" arrival="57678.00" arrivalLane="124812857#0_3" arrivalPos="143.49" arrivalSpeed="12.03" duration="29.00" routeLength="211.78" waitingTime="4.00" waitingCount="1" stopTime="0.00" timeLoss="12.73" rerouteNo="0" devices="tripinfo_h20403c1:5 routing_h20403c1:5" vType="default_016" speedFactor="0.95" vaporized=""/>
    <tripinfo id="carIn96537:1" depart="57653.00" departLane="201963537#1_1" departPos="5.10" departSpeed="0.00" departDelay="22.30" arrival="57679.00" arrivalLane="104012170_1" arrivalPos="109.94" arrivalSpeed="13.58" duration="26.00" routeLength="293.69" waitingTime="0.00" waitingCount="0" stopTime="0.00" timeLoss="4.91" rerouteNo="1" devices="tripinfo_carIn96537:1 routing_carIn96537:1" vType="default_016" speedFactor="1.03" vaporized=""/>
    <tripinfo id="carIn73466:1" depart="57652.00" departLane="104010354_1" departPos="5.10" departSpeed="0.00" departDelay="3.70" arrival="57681.00" arrivalLane="124812857#0_2" arrivalPos="143.49" arrivalSpeed="11.02" duration="29.00" routeLength="211.78" waitingTime="2.00" waitingCount="1" stopTime="0.00" timeLoss="11.27" rerouteNo="0" devices="tripinfo_carIn73466:1 routing_carIn73466:1" vType="default_016" speedFactor="0.87" vaporized=""/>
    <tripinfo id="carIn26410:1" depart="57657.00" departLane="201963537#1_1" departPos="5.10" departSpeed="0.00" departDelay="24.70" arrival="57682.00" arrivalLane="104012170_1" arrivalPos="109.94" arrivalSpeed="13.35" duration="25.00" routeLength="293.69" waitingTime="0.00" waitingCount="0" stopTime="0.00" timeLoss="4.48" rerouteNo="1" devices="tripinfo_carIn26410:1 routing_carIn26410:1" vType="default_016" speedFactor="1.04" vaporized=""/>
    <tripinfo id="carIn129760:1" depart="57661.00" departLane="653473569#5_1" departPos="5.10" departSpeed="0.00" departDelay="0.80" arrival="57685.00" arrivalLane="124812857#0_1" arrivalPos="143.49" arrivalSpeed="13.80" duration="24.00" routeLength="239.18" waitingTime="0.00" waitingCount="0" stopTime="0.00" timeLoss="6.34" rerouteNo="1" devices="tripinfo_carIn129760:1 routing_carIn129760:1" vType="default_016" speedFactor="1.05" vaporized=""/>
    <tripinfo id="carIn36018:1" depart="57667.00" departLane="104010354_1" departPos="5.10" departSpeed="0.00" departDelay="0.40" arrival="57685.00" arrivalLane="-653473569#5_1" arrivalPos="73.05" arrivalSpeed="11.93" duration="18.00" routeLength="153.51" waitingTime="0.00" waitingCount="0" stopTime="0.00" timeLoss="4.77" rerouteNo="1" devices="tripinfo_carIn36018:1 routing_carIn36018:1" vType="default_016" speedFactor="0.93" vaporized=""/>
    <tripinfo id="carIn129626:1" depart="57664.00" departLane="653473569#5_1" departPos="5.10" departSpeed="0.00" departDelay="1.60" arrival="57687.00" arrivalLane="124812857#0_1" arrivalPos="143.49" arrivalSpeed="16.19" duration="23.00" routeLength="239.18" waitingTime="0.00" waitingCount="0" stopTime="0.00" timeLoss="6.95" rerouteNo="1" devices="tripinfo_carIn129626:1 routing_carIn129626:1" vType="default_016" speedFactor="1.18" vaporized=""/>
    <tripinfo id="carIn51024:1" depart="57661.00" departLane="201963537#1_1" departPos="5.10" departSpeed="0.00" departDelay="27.00" arrival="57688.00" arrivalLane="104012170_1" arrivalPos="109.94" arrivalSpeed="12.52" duration="27.00" routeLength="293.69" waitingTime="0.00" waitingCount="0" stopTime="0.00" timeLoss="4.21" rerouteNo="1" devices="tripinfo_carIn51024:1 routing_carIn51024:1" vType="default_016" speedFactor="0.95" vaporized=""/>
    <tripinfo id="carIn128705:1" depart="57666.00" departLane="201963537#1_1" departPos="5.10" departSpeed="0.00" departDelay="30.30" arrival="57690.00" arrivalLane="104012170_1" arrivalPos="109.94" arrivalSpeed="15.24" duration="24.00" routeLength="293.69" waitingTime="0.00" waitingCount="0" stopTime="0.00" timeLoss="4.51" rerouteNo="1" devices="tripinfo_carIn128705:1 routing_carIn128705:1" vType="default_016" speedFactor="1.11" vaporized=""/>
    <tripinfo id="h20539c1:3" depart="57667.00" departLane="653473569#5_1" departPos="5.10" departSpeed="0.00" departDelay="2.20" arrival="57690.00" arrivalLane="124812857#0_1" arrivalPos="143.49" arrivalSpeed="15.00" duration="23.00" routeLength="239.18" waitingTime="0.00" waitingCount="0" stopTime="0.00" timeLoss="6.93" rerouteNo="1" devices="tripinfo_h20539c1:3 routing_h20539c1:3" vType="default_016" speedFactor="1.13" vaporized=""/>
    <tripinfo id="h2215c1:1" depart="57670.00" departLane="104010354_1" departPos="5.10" departSpeed="0.00" departDelay="0.10" arrival="57690.00" arrivalLane="124812857#0_2" arrivalPos="143.49" arrivalSpeed="12.84" duration="20.00" routeLength="211.78" waitingTime="0.00" waitingCount="0" stopTime="0.00" timeLoss="3.98" rerouteNo="0" devices="tripinfo_h2215c1:1 routing_h2215c1:1" vType="default_016" speedFactor="1.01" vaporized=""/>
    <tripinfo id="carIn102740:1" depart="57676.00" departLane="104010354_1" departPos="5.10" departSpeed="0.00" departDelay="0.50" arrival="57696.00" arrivalLane="124812857#0_2" arrivalPos="143.49" arrivalSpeed="12.64" duration="20.00" routeLength="211.78" waitingTime="0.00" waitingCount="0" stopTime="0.00" timeLoss="4.06" rerouteNo="0" devices="tripinfo_carIn102740:1 routing_carIn102740:1" vType="default_016" speedFactor="1.00" vaporized=""/>
    <tripinfo id="h21989c1:1" depart="57670.00" departLane="201963537#1_1" departPos="5.10" departSpeed="0.00" departDelay="32.70" arrival="57697.00" arrivalLane="104012170_1" arrivalPos="109.94" arrivalSpeed="12.14" duration="27.00" routeLength="293.69" waitingTime="0.00" waitingCount="0" stopTime="0.00" timeLoss="3.88" rerouteNo="1" devices="tripinfo_h21989c1:1 routing_h21989c1:1" vType="default_016" speedFactor="0.93" vaporized=""/>
    <tripinfo id="carIn35345:1" depart="57679.00" departLane="104010354_1" departPos="5.10" departSpeed="0.00" departDelay="1.10" arrival="57698.00" arrivalLane="124812857#0_2" arrivalPos="143.49" arrivalSpeed="14.06" duration="19.00" routeLength="211.78" waitingTime="0.00" waitingCount="0" stopTime="0.00" timeLoss="3.07" rerouteNo="0" devices="tripinfo_carIn35345:1 routing_carIn35345:1" vType="default_016" speedFactor="1.02" vaporized=""/>
    <tripinfo id="carIn76112:1" depart="57640.00" departLane="201963537#1_1" departPos="5.10" departSpeed="0.00" departDelay="14.00" arrival="57700.00" arrivalLane="-653473569#5_1" arrivalPos="73.05" arrivalSpeed="14.63" duration="60.00" routeLength="256.07" waitingTime="28.00" waitingCount="2" stopTime="0.00" timeLoss="41.48" rerouteNo="1" devices="tripinfo_carIn76112:1 routing_carIn76112:1" vType="default_016" speedFactor="1.06" vaporized=""/>
    <tripinfo id="carIn27521:1" depart="57644.00" departLane="201963537#1_1" departPos="5.10" departSpeed="0.00" departDelay="16.50" arrival="57702.00" arrivalLane="-653473569#5_1" arrivalPos="73.05" arrivalSpeed="15.21" duration="58.00" routeLength="256.07" waitingTime="25.00" waitingCount="2" stopTime="0.00" timeLoss="41.07" rerouteNo="1" devices="tripinfo_carIn27521:1 routing_carIn27521:1" vType="default_015" speedFactor="1.18" vaporized=""/>
    <tripinfo id="carIn130142:1" depart="57649.00" departLane="201963537#1_1" departPos="5.10" departSpeed="0.00" departDelay="19.90" arrival="57704.00" arrivalLane="-653473569#5_1" arrivalPos="73.05" arrivalSpeed="14.52" duration="55.00" routeLength="256.07" waitingTime="20.00" waitingCount="1" stopTime="0.00" timeLoss="36.54" rerouteNo="1" devices="tripinfo_carIn130142:1 routing_carIn130142:1" vType="default_015" speedFactor="1.06" vaporized=""/>
    <tripinfo id="randUni34730:1" depart="57651.00" departLane="201963537#1_1" departPos="5.10" departSpeed="0.00" departDelay="20.40" arrival="57707.00" arrivalLane="-653473569#5_1" arrivalPos="73.05" arrivalSpeed="12.08" duration="56.00" routeLength="256.07" waitingTime="19.00" waitingCount="1" stopTime="0.00" timeLoss="34.80" rerouteNo="1" devices="tripinfo_randUni34730:1 routing_randUni34730:1" vType="random_016" speedFactor="0.92" vaporized=""/>
    <tripinfo id="h3139c1:3" depart="57684.00" departLane="104010354_1" departPos="5.10" departSpeed="0.00" departDelay="0.70" arrival="57717.00" arrivalLane="124812857#0_2" arrivalPos="143.49" arrivalSpeed="14.49" duration="33.00" routeLength="211.78" waitingTime="9.00" waitingCount="1" stopTime="0.00" timeLoss="19.05" rerouteNo="0" devices="tripinfo_h3139c1:3 routing_h3139c1:3" vType="default_016" speedFactor="1.13" vaporized=""/>
    <tripinfo id="carIn26407:1" depart="57687.00" departLane="104010354_1" departPos="5.10" departSpeed="0.00" departDelay="1.00" arrival="57719.00" arrivalLane="124812857#0_2" arrivalPos="143.49" arrivalSpeed="11.53" duration="32.00" routeLength="211.78" waitingTime="5.00" waitingCount="1" stopTime="0.00" timeLoss="13.82" rerouteNo="0" devices="tripinfo_carIn26407:1 routing_carIn26407:1" vType="default_016" speedFactor="0.87" vaporized=""/>
    <tripinfo id="h14257c2:1" depart="57656.00" departLane="201963537#1_1" departPos="5.10" departSpeed="0.00" departDelay="23.80" arrival="57721.00" arrivalLane="-653473569#5_1" arrivalPos="73.05" arrivalSpeed="13.51" duration="65.00" routeLength="256.07" waitingTime="27.00" waitingCount="3" stopTime="0.00" timeLoss="46.22" rerouteNo="1" devices="tripinfo_h14257c2:1 routing_h14257c2:1" vType="default_016" speedFactor="1.05" vaporized=""/>
    <tripinfo id="carIn78692:1" depart="57702.00" departLane="104010354_1" departPos="5.10" departSpeed="0.00" departDelay="0.00" arrival="57721.00" arrivalLane="124812857#0_2" arrivalPos="143.49" arrivalSpeed="13.78" duration="19.00" routeLength="211.78" waitingTime="0.00" waitingCount="0" stopTime="0.00" timeLoss="3.73" rerouteNo="0" devices="tripinfo_carIn78692:1 routing_carIn78692:1" vType="default_016" speedFactor="1.03" vaporized=""/>
    <tripinfo id="carIn91254:1" depart="57696.00" departLane="653473569#5_1" departPos="5.10" departSpeed="0.00" departDelay="0.10" arrival="57722.00" arrivalLane="124812857#0_1" arrivalPos="143.49" arrivalSpeed="11.54" duration="26.00" routeLength="239.18" waitingTime="0.00" waitingCount="0" stopTime="0.00" timeLoss="5.76" rerouteNo="1" devices="tripinfo_carIn91254:1 routing_carIn91254:1" vType="default_016" speedFactor="0.91" vaporized=""/>
    <tripinfo id="carIn107084:1" depart="57660.00" departLane="201963537#1_1" departPos="5.10" departSpeed="0.00" departDelay="26.20" arrival="57723.00" arrivalLane="-653473569#5_1" arrivalPos="73.05" arrivalSpeed="13.20" duration="63.00" routeLength="256.07" waitingTime="23.00" waitingCount="4" stopTime="0.00" timeLoss="43.89" rerouteNo="1" devices="tripinfo_carIn107084:1 routing_carIn107084:1" vType="default_016" speedFactor="1.02" vaporized=""/>
    <tripinfo id="carIn77943:1" depart="57664.00" departLane="201963537#1_1" departPos="5.10" departSpeed="0.00" departDelay="28.60" arrival="57725.00" arrivalLane="-653473569#5_1" arrivalPos="73.05" arrivalSpeed="14.29" duration="61.00" routeLength="256.07" waitingTime="19.00" waitingCount="3" stopTime="0.00" timeLoss="42.99" rerouteNo="1" devices="tripinfo_carIn77943:1 routing_carIn77943:1" vType="default_016" speedFactor="1.11" vaporized=""/>
    <tripinfo id="h21130c2:1" depart="57699.00" departLane="201963537#1_1" departPos="5.10" departSpeed="0.00" departDelay="35.60" arrival="57725.00" arrivalLane="104012170_1" arrivalPos="109.94" arrivalSpeed="13.04" duration="26.00" routeLength="293.69" waitingTime="0.00" waitingCount="0" stopTime="0.00" timeLoss="3.91" rerouteNo="1" devices="tripinfo_h21130c2:1 routing_h21130c2:1" vType="default_016" speedFactor="0.98" vaporized=""/>
    <tripinfo id="carIn767:1" depart="57690.00" departLane="201963537#1_1" departPos="5.10" departSpeed="0.00" departDelay="41.80" arrival="57728.00" arrivalLane="-653473569#5_1" arrivalPos="73.05" arrivalSpeed="12.41" duration="38.00" routeLength="256.07" waitingTime="8.00" waitingCount="2" stopTime="0.00" timeLoss="17.54" rerouteNo="1" devices="tripinfo_carIn767:1 routing_carIn767:1" vType="default_016" speedFactor="0.96" vaporized=""/>
    <tripinfo id="carIn81046:1" depart="57669.00" departLane="201963537#1_1" departPos="5.10" departSpeed="0.00" departDelay="32.00" arrival="57735.00" arrivalLane="-653473569#5_1" arrivalPos="73.05" arrivalSpeed="12.03" duration="66.00" routeLength="256.07" waitingTime="19.00" waitingCount="3" stopTime="0.00" timeLoss="45.37" rerouteNo="1" devices="tripinfo_carIn81046:1 routing_carIn81046:1" vType="default_016" speedFactor="0.95" vaporized=""/>
    <tripinfo id="carIn64490:1" depart="57693.00" departLane="201963537#1_1" departPos="5.10" departSpeed="0.00" departDelay="43.70" arrival="57736.00" arrivalLane="-653473569#5_1" arrivalPos="73.05" arrivalSpeed="14.60" duration="43.00" routeLength="256.07" waitingTime="11.00" waitingCount="3" stopTime="0.00" timeLoss="26.39" rerouteNo="1" devices="tripinfo_carIn64490:1 routing_carIn64490:1" vType="default_016" speedFactor="1.15" vaporized=""/>
    <tripinfo id="h15382c1:3" depart="57673.00" departLane="201963537#1_1" departPos="5.10" departSpeed="0.00" departDelay="33.90" arrival="57738.00" arrivalLane="-653473569#5_1" arrivalPos="73.05" arrivalSpeed="14.29" duration="65.00" routeLength="256.07" waitingTime="21.00" waitingCount="3" stopTime="0.00" timeLoss="46.32" rerouteNo="1" devices="tripinfo_h15382c1:3 routing_h15382c1:3" vType="default_016" speedFactor="1.04" vaporized=""/>
    <tripinfo id="60.39" depart="57703.00" departLane="201963537#1_1" departPos="12.10" departSpeed="0.00" departDelay="34.50" arrival="57740.00" arrivalLane="104012170_1" arrivalPos="109.94" arrivalSpeed="13.30" duration="37.00" routeLength="286.69" waitingTime="0.00" waitingCount="0" stopTime="0.00" timeLoss="16.36" rerouteNo="1" devices="tripinfo_60.39 routing_60.39" vType="bus" speedFactor="1.00" vaporized=""/>
    <tripinfo id="carIn100220:1" depart="57707.00" departLane="201963537#1_1" departPos="5.10" departSpeed="0.00" departDelay="31.70" arrival="57740.00" arrivalLane="104012170_2" arrivalPos="109.94" arrivalSpeed="13.67" duration="33.00" routeLength="293.69" waitingTime="1.00" waitingCount="1" stopTime="0.00" timeLoss="12.11" rerouteNo="1" devices="tripinfo_carIn100220:1 routing_carIn100220:1" vType="default_016" speedFactor="1.05" vaporized=""/>
    <tripinfo id="h20540c1:1" depart="57702.00" departLane="201963537#1_1" departPos="5.10" departSpeed="0.00" departDelay="36.90" arrival="57744.00" arrivalLane="-653473569#5_1" arrivalPos="73.05" arrivalSpeed="13.33" duration="42.00" routeLength="256.07" waitingTime="9.00" waitingCount="3" stopTime="0.00" timeLoss="22.97" rerouteNo="1" devices="tripinfo_h20540c1:1 routing_h20540c1:1" vType="default_016" speedFactor="1.03" vaporized=""/>
    <tripinfo id="carIn12775:1" depart="57712.00" departLane="201963537#1_1" departPos="5.10" departSpeed="0.00" departDelay="9.50" arrival="57746.00" arrivalLane="-653473569#5_1" arrivalPos="73.05" arrivalSpeed="14.64" duration="34.00" routeLength="256.07" waitingTime="3.00" waitingCount="2" stopTime="0.00" timeLoss="15.77" rerouteNo="1" devices="tripinfo_carIn12775:1 routing_carIn12775:1" vType="default_016" speedFactor="1.09" vaporized=""/>
    <tripinfo id="carIn13362:1" depart="57718.00" departLane="201963537#1_1" departPos="5.10" departSpeed="0.00" departDelay="2.60" arrival="57750.00" arrivalLane="-653473569#5_1" arrivalPos="73.05" arrivalSpeed="12.93" duration="32.00" routeLength="256.07" waitingTime="2.00" waitingCount="2" stopTime="0.00" timeLoss="11.86" rerouteNo="1" devices="tripinfo_carIn13362:1 routing_carIn13362:1" vType="default_016" speedFactor="0.97" vaporized=""/>
    <tripinfo id="carIn106797:1" depart="57726.00" departLane="653473569#5_1" departPos="5.10" departSpeed="0.00" departDelay="1.00" arrival="57753.00" arrivalLane="124812857#0_1" arrivalPos="143.49" arrivalSpeed="14.19" duration="27.00" routeLength="239.18" waitingTime="0.00" waitingCount="0" stopTime="0.00" timeLoss="9.64" rerouteNo="1" devices="tripinfo_carIn106797:1 routing_carIn106797:1" vType="default_016" speedFactor="1.06" vaporized=""/>
    <tripinfo id="carIn98489:1" depart="57717.00" departLane="104010354_1" departPos="5.10" departSpeed="0.00" departDelay="0.60" arrival="57757.00" arrivalLane="124812857#0_3" arrivalPos="143.49" arrivalSpeed="14.19" duration="40.00" routeLength="211.78" waitingTime="16.00" waitingCount="1" stopTime="0.00" timeLoss="24.82" rerouteNo="0" devices="tripinfo_carIn98489:1 routing_carIn98489:1" vType="default_016" speedFactor="1.05" vaporized=""/>
    <tripinfo id="randUni10474:1" depart="57675.00" departLane="201963537#1_1" departPos="5.10" departSpeed="0.00" departDelay="35.00" arrival="57758.00" arrivalLane="-653473569#5_1" arrivalPos="73.05" arrivalSpeed="14.83" duration="83.00" routeLength="256.07" waitingTime="25.00" waitingCount="4" stopTime="0.00" timeLoss="65.57" rerouteNo="1" devices="tripinfo_randUni10474:1 routing_randUni10474:1" vType="random_016" speedFactor="1.11" vaporized=""/>
    <tripinfo id="carIn96193:1" depart="57714.00" departLane="104010354_1" departPos="5.10" departSpeed="0.00" departDelay="0.90" arrival="57758.00" arrivalLane="124812857#0_2" arrivalPos="143.49" arrivalSpeed="13.02" duration="44.00" routeLength="211.78" waitingTime="18.00" waitingCount="1" stopTime="0.00" timeLoss="27.83" rerouteNo="0" devices="tripinfo_carIn96193:1 routing_carIn96193:1" vType="default_016" speedFactor="0.99" vaporized=""/>